/*--------------------------------*- C++ -*----------------------------------*\
| =========                 |                                                 |
| \\      /  F ield         | OpenFOAM: The Open Source CFD Toolbox           |
|  \\    /   O peration     | Version:  4.1                                   |
|   \\  /    A nd           | Web:      www.OpenFOAM.org                      |
|    \\/     M anipulation  |                                                 |
\*---------------------------------------------------------------------------*/
FoamFile
{
    version     2.0;
    format      ascii;
    class       volVectorField;
    location    "6.8";
    object      U;
}
// * * * * * * * * * * * * * * * * * * * * * * * * * * * * * * * * * * * * * //

dimensions      [0 1 -1 0 0 0 0];

internalField   nonuniform List<vector> 
2000
(
(-0.0353327 0.0311665 5.57769e-20)
(0.00290576 0.0287143 0)
(0.135941 0.00524597 9.01119e-20)
(0.344535 -0.0252365 4.05394e-20)
(0.601575 -0.0531134 -7.54937e-20)
(0.870977 -0.0746202 -1.01762e-19)
(1.12119 -0.0884522 3.22894e-20)
(1.32886 -0.100844 0)
(1.49906 -0.10133 -2.53105e-20)
(1.59599 -0.120997 0)
(-0.0281249 0.0229012 -2.76602e-20)
(0.0540896 0.00457332 2.47242e-20)
(0.25552 -0.0244265 -9.47343e-20)
(0.537542 -0.0508612 -1.27142e-19)
(0.846942 -0.0680807 -8.84839e-22)
(1.13319 -0.0765368 3.34984e-20)
(1.36586 -0.0793681 -3.16148e-20)
(1.53672 -0.0812343 -2.7545e-20)
(1.65051 -0.0790288 2.531e-20)
(1.70699 -0.0904401 4.24933e-20)
(-0.0133069 0.0127193 2.96383e-20)
(0.130837 -0.0203247 -2.77609e-20)
(0.414703 -0.0477142 4.76333e-20)
(0.763825 -0.061963 -1.59693e-21)
(1.09731 -0.0642869 3.86263e-20)
(1.36511 -0.0605019 3.46652e-20)
(1.55373 -0.0556022 3.09685e-20)
(1.67176 -0.0534103 2.75451e-20)
(1.73716 -0.0512349 2.3273e-20)
(1.77154 -0.0601886 -2.03557e-20)
(0.0116338 0.00105659 -7.36562e-22)
(0.236952 -0.0423229 -2.94331e-20)
(0.607638 -0.0583044 0)
(0.999711 -0.0546575 4.2395e-20)
(1.32147 -0.043006 -4.11424e-20)
(1.54409 -0.0316218 0)
(1.67841 -0.0243641 0)
(1.7494 -0.0221405 0)
(1.78311 -0.0217773 -2.32743e-20)
(1.79188 -0.0302712 3.88826e-20)
(0.0490869 -0.0107622 6.89055e-20)
(0.372758 -0.0556959 1.57301e-23)
(0.818712 -0.0510888 2.74525e-20)
(1.2189 -0.0292979 2.23601e-20)
(1.50038 -0.00870217 2.02187e-20)
(1.6676 0.0046773 1.70833e-20)
(1.75305 0.0104678 0)
(1.79009 0.010617 1.21466e-20)
(1.80201 0.00792411 -5.08317e-20)
(1.80468 -0.000943568 6.62955e-20)
(0.100746 -0.0205003 -1.07639e-19)
(0.532675 -0.0542211 1.95675e-21)
(1.02693 -0.0245477 -5.44157e-20)
(1.40326 0.0107531 4.88405e-20)
(1.63064 0.0341959 -5.84811e-20)
(1.74548 0.0452876 1.88379e-20)
(1.79316 0.047446 0)
(1.80753 0.0442872 -1.21476e-20)
(1.8091 0.0384747 1.02632e-20)
(1.80644 0.0296699 3.01035e-20)
(0.166965 -0.0251664 0)
(0.704828 -0.0335481 0)
(1.21429 0.0195093 -2.76183e-20)
(1.54617 0.0616075 2.57104e-20)
(1.71788 0.0827078 -1.86453e-20)
(1.78917 0.0886824 1.75055e-20)
(1.81011 0.0859538 2.47227e-20)
(1.81119 0.078971 -2.3369e-20)
(1.80693 0.0701151 -1.64987e-20)
(1.80323 0.0606114 7.9202e-21)
(0.245913 -0.0215781 2.06623e-20)
(0.874128 0.00714865 0)
(1.37033 0.0777522 -1.2987e-20)
(1.64863 0.120003 4.82595e-20)
(1.76998 0.134853 -3.02555e-20)
(1.80794 0.133973 0)
(1.81138 0.125763 0)
(1.80501 0.114668 0)
(1.79864 0.102849 -1.40068e-20)
(1.79442 0.0923673 1.33143e-20)
(0.333331 -0.0071585 -1.05783e-20)
(1.02711 0.0655114 -3.86562e-22)
(1.49096 0.146504 -1.48214e-20)
(1.71484 0.183351 5.66266e-21)
(1.79413 0.189224 5.40666e-21)
(1.80818 0.180537 7.73738e-21)
(1.80095 0.166538 0)
(1.79109 0.15119 -1.8277e-21)
(1.78406 0.13646 -6.86602e-21)
(1.78007 0.124102 5.25453e-21)
(0.423105 0.0194431 0)
(1.15486 0.137574 -9.05801e-21)
(1.57592 0.222189 0)
(1.74965 0.249522 -3.19142e-21)
(1.7959 0.24467 -2.9498e-21)
(1.79384 0.227696 -3.44966e-21)
(1.78077 0.207745 0)
(1.76975 0.188005 1.82787e-21)
(1.76321 0.170261 1.33778e-21)
(1.75993 0.155465 6.04279e-22)
(-0.01006 0.00947602 0)
(-0.0392224 0.0170539 -5.05858e-21)
(-0.0794955 0.0192795 0)
(-0.11739 0.0191475 -6.62073e-21)
(-0.150339 0.0178838 -2.08995e-21)
(-0.178074 0.0160643 3.89488e-21)
(-0.200641 0.0140127 -3.66801e-21)
(-0.218345 0.011961 3.47645e-21)
(-0.231829 0.0101478 2.92546e-23)
(-0.242442 0.00885385 3.08357e-21)
(-0.0116046 0.0271516 -1.60409e-20)
(-0.0397643 0.049191 1.00231e-20)
(-0.0763139 0.0558486 -9.48426e-21)
(-0.109521 0.0555053 4.39146e-21)
(-0.137183 0.0517069 2.07998e-20)
(-0.159024 0.0461433 -7.80502e-21)
(-0.175036 0.039765 0)
(-0.185376 0.0332932 -3.46475e-21)
(-0.190333 0.0274835 -3.2651e-21)
(-0.191529 0.0232383 0)
(-0.0144149 0.0412778 1.07005e-20)
(-0.0409336 0.075781 0)
(-0.0707723 0.0866516 2.86491e-20)
(-0.0953911 0.0861905 -3.57911e-20)
(-0.113271 0.0798813 8.42794e-21)
(-0.124234 0.0703902 0)
(-0.128253 0.0591911 0)
(-0.125396 0.0474754 0)
(-0.115384 0.0365644 2.65104e-20)
(-0.0990369 0.028115 -2.51951e-20)
(-0.0179869 0.0504869 0)
(-0.0427954 0.094278 -2.09592e-20)
(-0.0641364 0.108621 3.89213e-20)
(-0.0774051 0.107972 -1.8159e-20)
(-0.0820717 0.0991973 1.71416e-20)
(-0.0782336 0.0857233 -4.83742e-20)
(-0.0659068 0.0693176 -3.91431e-24)
(-0.0453467 0.0513417 2.87513e-20)
(-0.0165608 0.0335175 2.68599e-20)
(0.0240441 0.0201336 -3.8245e-20)
(-0.0218387 0.0546354 2.24742e-20)
(-0.0452862 0.103577 -4.29231e-20)
(-0.0574406 0.119846 -1.48987e-22)
(-0.0575823 0.118452 1.52149e-22)
(-0.0463124 0.107071 1.731e-20)
(-0.0241548 0.0896313 -4.9055e-20)
(0.00869201 0.0681121 0)
(0.0517869 0.0437571 -1.45822e-20)
(0.104542 0.0183601 1.37217e-20)
(0.17661 -0.00177853 -5.14897e-20)
(-0.0256852 0.0546165 -2.81932e-22)
(-0.0480384 0.104058 4.34272e-20)
(-0.0506593 0.119816 1.99941e-20)
(-0.036009 0.116337 1.91113e-20)
(-0.0057321 0.101661 1.74524e-20)
(0.0393295 0.0800792 1.64164e-20)
(0.0987354 0.0538987 0)
(0.171919 0.0245467 1.45809e-20)
(0.252768 -0.00738706 4.06432e-20)
(0.369356 -0.0351462 -1.34973e-20)
(-0.0294491 0.0518676 6.75157e-23)
(-0.0501354 0.0972735 2.23353e-20)
(-0.0418462 0.109399 0)
(-0.00928485 0.101797 -3.74519e-20)
(0.0453213 0.0826233 3.54438e-20)
(0.12068 0.0564742 0)
(0.215351 0.025994 0)
(0.328879 -0.00612295 0)
(0.441871 -0.0417775 -2.75959e-20)
(0.614232 -0.0730013 -5.14796e-20)
(-0.0330166 0.047754 -2.44084e-20)
(-0.0497419 0.0851744 2.28639e-20)
(-0.0264901 0.0904916 4.20786e-20)
(0.0305703 0.0766906 5.1184e-22)
(0.118754 0.0520495 3.58501e-20)
(0.235273 0.0214736 3.34138e-20)
(0.375214 -0.012028 3.12495e-20)
(0.536037 -0.043996 2.92007e-20)
(0.68331 -0.0789983 2.75921e-20)
(0.904486 -0.105853 -2.53164e-20)
(-0.0359537 0.0430302 -7.6411e-20)
(-0.043758 0.0693063 -2.27576e-20)
(0.00250897 0.0653917 -8.44405e-20)
(0.0952673 0.0442369 -3.8804e-20)
(0.229892 0.0145348 4.64775e-22)
(0.398579 -0.0183464 -3.30965e-20)
(0.589307 -0.0507834 3.14683e-20)
(0.790827 -0.0792818 -2.91968e-20)
(0.969532 -0.107672 2.70118e-20)
(1.20076 -0.123771 -5.04806e-20)
(-0.0372575 0.0376815 5.13535e-20)
(-0.0279023 0.0504285 0)
(0.0538088 0.0362491 4.30046e-20)
(0.197099 0.00855334 -7.63149e-23)
(0.390644 -0.0231789 5.78982e-22)
(0.61526 -0.0535243 3.33825e-20)
(0.848657 -0.0787304 -9.44514e-20)
(1.06783 -0.100612 0)
(1.2607 -0.115539 -2.70086e-20)
(1.44461 -0.124665 0)
(-0.25162 0.00798073 0)
(-0.260393 0.00591966 -2.89806e-21)
(-0.266062 0.0035443 5.75114e-21)
(-0.26851 0.00109834 -2.49838e-21)
(-0.267836 -0.00149364 0)
(-0.263995 -0.00416645 2.56025e-21)
(-0.256801 -0.00688409 -2.57294e-21)
(-0.246138 -0.00962165 0)
(-0.231928 -0.01236 0)
(-0.214133 -0.0150798 2.57882e-22)
(-0.192762 -0.0177337 0)
(-0.167859 -0.0203164 0)
(-0.139481 -0.0228158 0)
(-0.107699 -0.0252373 0)
(-0.0725324 -0.0276657 -2.1889e-22)
(-0.034058 -0.0299851 2.20025e-22)
(0.00779208 -0.0323697 0)
(0.0526266 -0.0350297 -3.08278e-23)
(0.101843 -0.0377732 3.09901e-23)
(0.170569 -0.0403594 0)
(-0.193198 0.0206806 0)
(-0.198339 0.0146927 7.50007e-22)
(-0.200278 0.00778185 0)
(-0.19927 0.00059553 1.08662e-20)
(-0.195483 -0.00696289 -1.05686e-20)
(-0.188713 -0.0147553 6.77635e-22)
(-0.17885 -0.0226938 -4.95048e-21)
(-0.165816 -0.0307081 1.0244e-20)
(-0.149542 -0.0387432 -8.42896e-21)
(-0.129945 -0.0467826 4.62057e-21)
(-0.107066 -0.0544846 3.5716e-21)
(-0.0810087 -0.0619782 -6.31224e-21)
(-0.0518336 -0.0692145 3.17186e-21)
(-0.0197322 -0.076172 1.46542e-21)
(0.0154956 -0.0828734 -1.14649e-21)
(0.0537012 -0.0894322 2.11734e-22)
(0.094484 -0.0960473 1.56497e-22)
(0.137651 -0.10317 1.41251e-22)
(0.183249 -0.110508 -1.41936e-22)
(0.247556 -0.118178 2.16001e-24)
(-0.0883406 0.0241861 -7.75597e-22)
(-0.0865611 0.0150032 -7.51318e-22)
(-0.0817919 0.00426084 -7.56469e-22)
(-0.0744694 -0.00721883 0)
(-0.0649294 -0.0191621 -1.25969e-20)
(-0.0528918 -0.0314527 9.84085e-21)
(-0.038298 -0.043999 0)
(-0.0211465 -0.0566782 -1.24821e-21)
(-0.00146431 -0.0693434 -5.73782e-22)
(0.0212826 -0.0818073 7.16177e-21)
(0.0468764 -0.0939823 -8.14293e-22)
(0.0747647 -0.105798 -8.3766e-21)
(0.105116 -0.117122 -4.00125e-22)
(0.137811 -0.127874 -3.22298e-22)
(0.172742 -0.137978 -2.87059e-22)
(0.209743 -0.147726 5.55778e-22)
(0.248463 -0.157214 -5.4997e-22)
(0.289047 -0.166907 -5.49685e-22)
(0.328485 -0.176589 -9.90949e-23)
(0.386025 -0.187987 1.95071e-23)
(0.0494167 0.0143194 -2.42159e-20)
(0.0602916 0.00345874 3.89651e-22)
(0.0731025 -0.0100577 1.25824e-21)
(0.0883404 -0.0248729 2.43353e-20)
(0.105434 -0.0402234 2.20357e-21)
(0.124208 -0.0560287 6.97391e-22)
(0.14476 -0.0722228 -1.97776e-20)
(0.167151 -0.0886305 1.18567e-20)
(0.191398 -0.104958 1.0023e-20)
(0.217581 -0.120905 -9.19442e-21)
(0.245628 -0.136619 8.18157e-22)
(0.275353 -0.151745 9.22619e-21)
(0.306648 -0.166106 3.96794e-22)
(0.33934 -0.179564 3.3089e-21)
(0.373247 -0.192084 -2.30845e-21)
(0.408214 -0.203702 -1.66761e-21)
(0.443569 -0.214558 1.46809e-21)
(0.48056 -0.224997 0)
(0.512788 -0.234733 2.16917e-22)
(0.562199 -0.246821 1.15049e-23)
(0.214491 -0.00902037 5.08289e-20)
(0.23631 -0.0207236 -2.3663e-20)
(0.256496 -0.0360028 2.53045e-20)
(0.279479 -0.0527807 0)
(0.304143 -0.0702896 -1.48132e-21)
(0.329692 -0.0883961 -2.27256e-20)
(0.356094 -0.107015 -3.31063e-22)
(0.383448 -0.125923 1.20439e-21)
(0.411765 -0.144806 2.05816e-20)
(0.440993 -0.163351 1.13755e-21)
(0.471033 -0.181333 0)
(0.501691 -0.198467 -9.37601e-22)
(0.532835 -0.214548 0)
(0.564221 -0.22935 -7.15215e-22)
(0.595675 -0.242852 0)
(0.627081 -0.254906 0)
(0.657496 -0.265768 3.69447e-22)
(0.689042 -0.275413 -4.27121e-22)
(0.713907 -0.283794 3.79442e-22)
(0.75305 -0.293527 -9.92877e-23)
(0.414544 -0.0418462 0)
(0.444834 -0.0543195 -1.6094e-21)
(0.470907 -0.0707325 -5.03359e-20)
(0.499159 -0.0885888 4.87763e-20)
(0.529093 -0.107136 -1.51819e-21)
(0.559422 -0.126403 0)
(0.589799 -0.146285 -2.20391e-20)
(0.620241 -0.166461 4.155e-20)
(0.650709 -0.186563 -2.21241e-20)
(0.681026 -0.206215 -1.17942e-21)
(0.711054 -0.225101 -1.0826e-21)
(0.740503 -0.24285 -9.78309e-22)
(0.76931 -0.259251 0)
(0.797073 -0.27395 4.76763e-21)
(0.823856 -0.287041 -1.07338e-20)
(0.849286 -0.29809 4.57737e-21)
(0.872965 -0.30773 -3.98887e-22)
(0.896279 -0.315222 -2.81683e-22)
(0.913745 -0.321567 1.07571e-22)
(0.93966 -0.327035 -1.04927e-22)
(0.658748 -0.0781971 5.14732e-20)
(0.691325 -0.0909448 0)
(0.719174 -0.108189 -1.5878e-21)
(0.748705 -0.12643 3.11115e-21)
(0.779709 -0.145222 3.0293e-21)
(0.810734 -0.164815 1.46135e-21)
(0.841256 -0.184997 1.40233e-21)
(0.871097 -0.205333 -1.95054e-20)
(0.900101 -0.225436 2.33121e-20)
(0.927923 -0.244877 2.03229e-20)
(0.954446 -0.263317 -1.68812e-20)
(0.979196 -0.280293 1.92949e-21)
(1.00235 -0.295661 -6.42097e-21)
(1.02317 -0.308916 1.65277e-21)
(1.04241 -0.320386 6.73194e-21)
(1.0588 -0.329265 5.08466e-22)
(1.07383 -0.3368 -5.61513e-22)
(1.08594 -0.341251 7.29414e-22)
(1.09581 -0.345349 1.04782e-21)
(1.10597 -0.346013 5.20901e-23)
(0.939863 -0.110301 0)
(0.9672 -0.123445 -5.15182e-20)
(0.991515 -0.140664 5.28854e-20)
(1.01746 -0.158587 -1.55657e-21)
(1.04453 -0.177236 -2.99446e-21)
(1.07137 -0.196665 -1.45999e-21)
(1.09734 -0.216434 -2.76699e-21)
(1.12195 -0.236067 0)
(1.14491 -0.2552 -1.24367e-21)
(1.16574 -0.27338 -1.15311e-21)
(1.18448 -0.290301 -1.03457e-21)
(1.20044 -0.305457 -1.88236e-21)
(1.21428 -0.318829 0)
(1.22474 -0.329799 0)
(1.23377 -0.33897 -6.11687e-22)
(1.23859 -0.34519 -4.49406e-21)
(1.24364 -0.350339 3.11091e-21)
(1.24288 -0.3517 -2.67129e-22)
(1.24523 -0.353741 -5.29178e-22)
(1.2392 -0.350311 1.53591e-22)
(1.22325 -0.130764 5.26253e-20)
(1.24212 -0.145053 0)
(1.25992 -0.161814 0)
(1.27872 -0.179444 -4.78946e-20)
(1.29793 -0.197949 2.85172e-21)
(1.31648 -0.21686 9.01078e-20)
(1.33362 -0.235669 -4.2575e-20)
(1.34861 -0.253992 0)
(1.36128 -0.27153 0)
(1.37111 -0.287846 0)
(1.37851 -0.30271 5.28312e-22)
(1.38265 -0.315641 1.36061e-21)
(1.38485 -0.326746 1.19714e-20)
(1.3833 -0.33537 -1.15508e-20)
(1.38125 -0.342307 4.22898e-21)
(1.3743 -0.3462 -3.72326e-21)
(1.36986 -0.349327 0)
(1.35739 -0.348323 1.32432e-22)
(1.35342 -0.348812 1.52643e-22)
(1.33386 -0.342534 0)
(1.46631 -0.13918 -8.16349e-22)
(1.4821 -0.154159 -4.99901e-20)
(1.49353 -0.169868 4.94698e-20)
(1.50257 -0.186635 0)
(1.51035 -0.203919 4.43744e-20)
(1.51677 -0.221144 -8.62449e-20)
(1.52139 -0.238075 4.18946e-20)
(1.52361 -0.254473 0)
(1.52357 -0.270087 1.74523e-20)
(1.52088 -0.284498 -3.32837e-20)
(1.5163 -0.297521 1.63322e-20)
(1.50892 -0.308695 -4.35414e-22)
(1.50055 -0.31817 0)
(1.48892 -0.325301 -9.91695e-21)
(1.47814 -0.330908 1.34572e-20)
(1.46256 -0.333626 -3.92507e-21)
(1.45155 -0.335745 -2.33062e-21)
(1.43139 -0.333813 1.66141e-21)
(1.42361 -0.333629 7.62855e-22)
(1.39565 -0.326278 0)
(1.67597 -0.126385 0)
(1.67284 -0.141422 0)
(1.66519 -0.155094 0)
(1.65648 -0.169714 0)
(1.64862 -0.185269 0)
(1.64134 -0.201034 0)
(1.63391 -0.216499 0)
(1.62537 -0.23134 0)
(1.61578 -0.24545 0)
(1.60454 -0.258549 0)
(1.59252 -0.27059 0)
(1.57851 -0.28114 0)
(1.56452 -0.290397 0)
(1.54781 -0.297693 0)
(1.53287 -0.30381 0)
(1.51335 -0.30741 0)
(1.49932 -0.310528 0)
(1.47594 -0.310053 0)
(1.46616 -0.310893 0)
(1.43516 -0.305546 0)
(1.73552 -0.114451 0)
(1.73601 -0.130957 0)
(1.7281 -0.146297 0)
(1.71688 -0.161854 0)
(1.70592 -0.177736 0)
(1.69551 -0.19344 0)
(1.68495 -0.20856 0)
(1.67324 -0.222819 0)
(1.66055 -0.236163 0)
(1.64634 -0.248372 0)
(1.63164 -0.259455 0)
(1.61524 -0.269037 0)
(1.59919 -0.27735 0)
(1.58066 -0.283783 0)
(1.56424 -0.289106 0)
(1.5434 -0.292062 0)
(1.52836 -0.294595 0)
(1.50405 -0.293743 0)
(1.49366 -0.294208 0)
(1.46223 -0.288691 0)
(1.76652 -0.103814 0)
(1.76718 -0.121095 0)
(1.75878 -0.137367 0)
(1.74649 -0.152978 0)
(1.7343 -0.16816 0)
(1.72272 -0.182823 0)
(1.71109 -0.196808 0)
(1.69834 -0.209915 0)
(1.68466 -0.222101 0)
(1.66953 -0.233179 0)
(1.65403 -0.243192 0)
(1.63696 -0.251829 0)
(1.6204 -0.25933 0)
(1.60149 -0.265144 0)
(1.58481 -0.269985 0)
(1.5638 -0.272702 0)
(1.5487 -0.275048 0)
(1.5244 -0.274352 0)
(1.51413 -0.274795 0)
(1.48287 -0.269944 0)
(1.78028 -0.0940528 0)
(1.78101 -0.111368 0)
(1.77298 -0.127713 0)
(1.76086 -0.142917 0)
(1.74853 -0.157263 0)
(1.73671 -0.170923 0)
(1.72485 -0.183911 0)
(1.71194 -0.196074 0)
(1.69817 -0.207362 0)
(1.68301 -0.217596 0)
(1.66758 -0.226835 0)
(1.65065 -0.234805 0)
(1.63434 -0.241745 0)
(1.61573 -0.247147 0)
(1.59941 -0.251672 0)
(1.57883 -0.254253 0)
(1.56415 -0.256495 0)
(1.54039 -0.255961 0)
(1.53044 -0.256438 0)
(1.49994 -0.252163 0)
(1.78588 -0.0858485 0)
(1.78671 -0.102538 0)
(1.77948 -0.118357 0)
(1.76813 -0.132912 0)
(1.75625 -0.146442 0)
(1.74464 -0.159196 0)
(1.73299 -0.171276 0)
(1.72036 -0.18257 0)
(1.70692 -0.193029 0)
(1.69217 -0.202485 0)
(1.67719 -0.211005 0)
(1.66077 -0.218347 0)
(1.645 -0.224748 0)
(1.62699 -0.22974 0)
(1.61128 -0.233939 0)
(1.59135 -0.236364 0)
(1.57725 -0.238484 0)
(1.5542 -0.238077 0)
(1.54467 -0.238578 0)
(1.51507 -0.234789 0)
(1.78967 -0.0790229 0)
(1.79042 -0.0946465 0)
(1.78393 -0.10959 0)
(1.77342 -0.123338 0)
(1.76213 -0.136028 0)
(1.75091 -0.1479 0)
(1.73959 -0.15909 0)
(1.72733 -0.169525 0)
(1.71436 -0.179171 0)
(1.70011 -0.187875 0)
(1.68567 -0.195708 0)
(1.66982 -0.202452 0)
(1.65465 -0.208339 0)
(1.63726 -0.21294 0)
(1.62218 -0.216829 0)
(1.60291 -0.219098 0)
(1.58938 -0.221098 0)
(1.56703 -0.220796 0)
(1.55791 -0.221312 0)
(1.52917 -0.217951 0)
(1.79454 -0.0730216 0)
(1.79491 -0.087414 0)
(1.7889 -0.101323 0)
(1.77912 -0.114167 0)
(1.76839 -0.125987 0)
(1.75752 -0.136983 0)
(1.7465 -0.147302 0)
(1.73459 -0.1569 0)
(1.72202 -0.165762 0)
(1.70822 -0.173748 0)
(1.69427 -0.180931 0)
(1.67892 -0.187111 0)
(1.66428 -0.192512 0)
(1.64743 -0.196738 0)
(1.63289 -0.200325 0)
(1.61419 -0.202432 0)
(1.60117 -0.204306 0)
(1.57942 -0.204078 0)
(1.57066 -0.204594 0)
(1.54266 -0.201595 0)
(1.80106 -0.0674915 0)
(1.80084 -0.0806318 0)
(1.79507 -0.0934399 0)
(1.78585 -0.105318 0)
(1.77558 -0.116241 0)
(1.76502 -0.126367 0)
(1.75423 -0.135836 0)
(1.74257 -0.144626 0)
(1.73031 -0.152734 0)
(1.71686 -0.160034 0)
(1.7033 -0.166596 0)
(1.68834 -0.172238 0)
(1.67413 -0.177172 0)
(1.65771 -0.181033 0)
(1.64362 -0.184322 0)
(1.62537 -0.186262 0)
(1.61276 -0.187999 0)
(1.5915 -0.187822 0)
(1.58303 -0.188322 0)
(1.55564 -0.185635 0)
(1.80889 -0.0622524 0)
(1.80796 -0.0741529 0)
(1.80228 -0.0858288 0)
(1.79348 -0.0967042 0)
(1.78358 -0.106713 0)
(1.77325 -0.115972 0)
(1.76263 -0.124612 0)
(1.75114 -0.132618 0)
(1.7391 -0.139997 0)
(1.72591 -0.146635 0)
(1.71264 -0.152599 0)
(1.69799 -0.157723 0)
(1.68409 -0.162206 0)
(1.66801 -0.165714 0)
(1.65426 -0.16871 0)
(1.63636 -0.17048 0)
(1.62408 -0.172077 0)
(1.6032 -0.171932 0)
(1.59497 -0.172408 0)
(1.56806 -0.169998 0)
(1.81749 -0.0571599 0)
(1.81583 -0.067843 0)
(1.81013 -0.0783834 0)
(1.80162 -0.0882426 0)
(1.792 -0.0973291 0)
(1.78185 -0.10573 0)
(1.77133 -0.113557 0)
(1.75996 -0.120799 0)
(1.74808 -0.12747 0)
(1.73508 -0.133467 0)
(1.72201 -0.138854 0)
(1.70759 -0.143477 0)
(1.69394 -0.147525 0)
(1.67811 -0.15069 0)
(1.66462 -0.1534 0)
(1.647 -0.155 0)
(1.63497 -0.156454 0)
(1.61439 -0.156332 0)
(1.60634 -0.156775 0)
(1.57981 -0.154616 0)
(1.82639 -0.0520952 0)
(1.82399 -0.0615975 0)
(1.81818 -0.0710203 0)
(1.80987 -0.0798678 0)
(1.80048 -0.0880356 0)
(1.79045 -0.0955853 0)
(1.78001 -0.102614 0)
(1.7687 -0.109111 0)
(1.75693 -0.115093 0)
(1.74406 -0.120466 0)
(1.73116 -0.125293 0)
(1.7169 -0.129433 0)
(1.70343 -0.133058 0)
(1.68779 -0.13589 0)
(1.6745 -0.13832 0)
(1.65709 -0.139754 0)
(1.64526 -0.141063 0)
(1.62491 -0.140958 0)
(1.617 -0.141364 0)
(1.59078 -0.139439 0)
(1.83517 -0.0469872 0)
(1.83206 -0.055353 0)
(1.82609 -0.0636854 0)
(1.81792 -0.0715348 0)
(1.80869 -0.0787924 0)
(1.79875 -0.0855017 0)
(1.78835 -0.091745 0)
(1.77709 -0.0975132 0)
(1.76539 -0.102821 0)
(1.75261 -0.107588 0)
(1.73983 -0.111869 0)
(1.72569 -0.115538 0)
(1.71237 -0.118753 0)
(1.69687 -0.121262 0)
(1.68374 -0.123419 0)
(1.66648 -0.124688 0)
(1.65481 -0.125855 0)
(1.63463 -0.125761 0)
(1.62685 -0.126128 0)
(1.60087 -0.124423 0)
(1.84352 -0.0417996 0)
(1.83974 -0.0490725 0)
(1.83359 -0.0563433 0)
(1.82551 -0.0632116 0)
(1.8164 -0.0695709 0)
(1.80652 -0.0754514 0)
(1.79615 -0.0809224 0)
(1.78491 -0.0859754 0)
(1.77325 -0.0906247 0)
(1.76054 -0.0947983 0)
(1.74785 -0.0985465 0)
(1.7338 -0.101757 0)
(1.72059 -0.104571 0)
(1.7052 -0.106765 0)
(1.69219 -0.108654 0)
(1.67505 -0.109764 0)
(1.6635 -0.110787 0)
(1.64347 -0.110704 0)
(1.63577 -0.11103 0)
(1.60998 -0.109537 0)
(1.85121 -0.0365122 0)
(1.84683 -0.0427318 0)
(1.84049 -0.0489694 0)
(1.83246 -0.0548756 0)
(1.82344 -0.0603504 0)
(1.8136 -0.0654144 0)
(1.80323 -0.0701258 0)
(1.79201 -0.0744766 0)
(1.78038 -0.0784796 0)
(1.76771 -0.0820721 0)
(1.75508 -0.0852985 0)
(1.74111 -0.0880608 0)
(1.72797 -0.0904826 0)
(1.71266 -0.092369 0)
(1.69975 -0.0939951 0)
(1.6827 -0.0949482 0)
(1.67125 -0.0958313 0)
(1.65133 -0.0957577 0)
(1.64371 -0.0960404 0)
(1.61806 -0.0947539 0)
(1.85807 -0.0311146 0)
(1.85315 -0.0363177 0)
(1.84663 -0.0415493 0)
(1.83863 -0.0465123 0)
(1.82966 -0.0511171 0)
(1.81985 -0.0553775 0)
(1.80949 -0.0593415 0)
(1.79826 -0.0630017 0)
(1.78664 -0.0663695 0)
(1.77401 -0.0693914 0)
(1.76143 -0.0721053 0)
(1.7475 -0.074428 0)
(1.73443 -0.0764648 0)
(1.71918 -0.07805 0)
(1.70634 -0.079418 0)
(1.68937 -0.080218 0)
(1.67799 -0.0809619 0)
(1.65815 -0.080898 0)
(1.65059 -0.0811374 0)
(1.62506 -0.0800531 0)
(1.86395 -0.0256075 0)
(1.85857 -0.0298264 0)
(1.85189 -0.0340766 0)
(1.8439 -0.0381141 0)
(1.83498 -0.0418626 0)
(1.82518 -0.0453315 0)
(1.81481 -0.048559 0)
(1.80357 -0.0515394 0)
(1.79197 -0.0542816 0)
(1.77936 -0.056742 0)
(1.7668 -0.0589514 0)
(1.75292 -0.0608419 0)
(1.73989 -0.0624998 0)
(1.72469 -0.0637895 0)
(1.7119 -0.0649031 0)
(1.69498 -0.0655532 0)
(1.68367 -0.0661592 0)
(1.66389 -0.0661057 0)
(1.65637 -0.0663015 0)
(1.63094 -0.0654167 0)
(1.86876 -0.0200074 0)
(1.86301 -0.0232687 0)
(1.85618 -0.0265569 0)
(1.84819 -0.0296828 0)
(1.8393 -0.0325859 0)
(1.82951 -0.035273 0)
(1.81913 -0.0377734 0)
(1.80789 -0.0400827 0)
(1.79629 -0.0422073 0)
(1.78369 -0.0441137 0)
(1.77116 -0.0458252 0)
(1.7573 -0.0472897 0)
(1.74431 -0.0485736 0)
(1.72913 -0.0495726 0)
(1.71639 -0.0504346 0)
(1.69951 -0.0509381 0)
(1.68824 -0.0514072 0)
(1.66851 -0.0513651 0)
(1.66103 -0.0515167 0)
(1.63566 -0.0508302 0)
(1.87241 -0.0143454 0)
(1.86637 -0.0166696 0)
(1.85944 -0.01901 0)
(1.85145 -0.0212334 0)
(1.84258 -0.0232978 0)
(1.83279 -0.0252092 0)
(1.82241 -0.026988 0)
(1.81115 -0.0286319 0)
(1.79955 -0.030144 0)
(1.78696 -0.0315018 0)
(1.77445 -0.0327194 0)
(1.7606 -0.033763 0)
(1.74764 -0.0346756 0)
(1.73249 -0.0353885 0)
(1.71978 -0.0359999 0)
(1.70292 -0.0363608 0)
(1.69169 -0.0366915 0)
(1.67199 -0.0366645 0)
(1.66453 -0.0367689 0)
(1.63922 -0.0362815 0)
(1.87483 -0.00857832 0)
(1.86862 -0.00999369 0)
(1.86162 -0.0114081 0)
(1.85363 -0.0127455 0)
(1.84477 -0.0139835 0)
(1.83499 -0.0151288 0)
(1.82459 -0.0161936 0)
(1.81333 -0.0171788 0)
(1.80173 -0.0180835 0)
(1.78915 -0.0188978 0)
(1.77665 -0.0196252 0)
(1.76281 -0.0202524 0)
(1.74986 -0.0207953 0)
(1.73473 -0.0212267 0)
(1.72204 -0.0215865 0)
(1.7052 -0.0218107 0)
(1.69399 -0.0219984 0)
(1.67431 -0.0219943 0)
(1.66687 -0.0220438 0)
(1.64159 -0.021762 0)
(1.87598 -0.00271861 0)
(1.8697 -0.00323372 0)
(1.86268 -0.00373513 0)
(1.85471 -0.00420136 0)
(1.84587 -0.00462772 0)
(1.83609 -0.00501907 0)
(1.82569 -0.00538047 0)
(1.81443 -0.00571385 0)
(1.80283 -0.00601835 0)
(1.79025 -0.00629266 0)
(1.77775 -0.00653585 0)
(1.76392 -0.0067471 0)
(1.75098 -0.00692717 0)
(1.73585 -0.00707366 0)
(1.72317 -0.00719089 0)
(1.70635 -0.00726991 0)
(1.69513 -0.00732741 0)
(1.67548 -0.00733254 0)
(1.66804 -0.00734238 0)
(1.64278 -0.0072542 0)
(1.75888 0.138121 -5.90433e-22)
(1.77813 0.113791 0)
(1.79179 0.0884076 3.40773e-22)
(1.8014 0.0621226 1.07697e-20)
(1.805 0.0351613 -3.07173e-20)
(1.80606 0.00822099 0)
(1.80151 -0.0194615 -3.7724e-20)
(1.78436 -0.0461828 0)
(1.7803 -0.0738228 -4.44547e-20)
(1.67461 -0.106464 6.86703e-22)
(1.76065 0.123266 1.33558e-22)
(1.7779 0.102006 -1.97183e-22)
(1.791 0.0795559 1.97579e-22)
(1.79848 0.0569222 -2.06446e-21)
(1.80473 0.0328358 1.03333e-20)
(1.80032 0.00937169 8.24695e-22)
(1.80855 -0.0152682 0)
(1.77924 -0.0407149 3.24037e-20)
(1.80606 -0.0620183 0)
(1.72944 -0.0957929 3.83318e-20)
(1.76668 0.108768 -7.63733e-23)
(1.78028 0.0898726 0)
(1.79367 0.0697115 2.16883e-22)
(1.79634 0.0494582 -2.13179e-21)
(1.80694 0.028299 -1.11703e-20)
(1.79477 0.00653888 0)
(1.81181 -0.0135876 -2.41094e-20)
(1.77803 -0.0390919 -3.31471e-20)
(1.80556 -0.0550332 0)
(1.75971 -0.0861927 -3.79426e-20)
(1.77512 0.0961311 -6.13429e-23)
(1.78516 0.07895 -4.41778e-22)
(1.79924 0.0613004 0)
(1.79756 0.04257 -7.21835e-21)
(1.81065 0.0248087 -5.71098e-22)
(1.79493 0.00381174 1.24483e-21)
(1.81192 -0.0121309 2.3503e-20)
(1.78369 -0.0367899 7.68108e-22)
(1.80018 -0.0502639 2.66272e-20)
(1.77372 -0.0772645 0)
(1.78469 0.0849506 0)
(1.79233 0.0691886 4.04049e-22)
(1.80616 0.0541176 1.09804e-21)
(1.80275 0.0365655 -4.68651e-22)
(1.81485 0.0218624 3.54558e-22)
(1.80063 0.00192423 5.66321e-22)
(1.81196 -0.0114095 1.67699e-20)
(1.79181 -0.0338139 1.39164e-21)
(1.7984 -0.0466774 -4.10587e-21)
(1.78004 -0.069924 -2.55296e-20)
(1.79467 0.0749596 5.25306e-22)
(1.80124 0.0604975 -1.86694e-24)
(1.81353 0.0475881 -5.73729e-22)
(1.81072 0.0313152 -7.07788e-23)
(1.81971 0.0187037 4.45853e-21)
(1.80906 0.000461107 0)
(1.81439 -0.0116918 -1.8507e-20)
(1.79973 -0.0313306 5.54778e-22)
(1.80095 -0.0439919 -4.26468e-20)
(1.7847 -0.0642314 4.7284e-20)
(1.80478 0.0659183 -5.2789e-22)
(1.81114 0.0527986 -6.90483e-22)
(1.82128 0.0414847 -2.99264e-22)
(1.8199 0.0267416 1.26229e-21)
(1.82572 0.0153905 -1.09579e-21)
(1.81808 -0.000818106 4.78081e-21)
(1.81965 -0.0123739 -4.62997e-22)
(1.8075 -0.0294832 9.96314e-22)
(1.80664 -0.0416392 1.90785e-20)
(1.7906 -0.0595048 -2.17908e-20)
(1.81495 0.0577001 0)
(1.8213 0.0459767 1.70058e-21)
(1.82948 0.0358405 -7.2516e-23)
(1.82926 0.0227483 -1.27606e-21)
(1.83294 0.0122801 -1.15469e-21)
(1.82701 -0.00193688 -8.05461e-21)
(1.82692 -0.0128629 4.56993e-21)
(1.81577 -0.027886 0)
(1.81425 -0.0392259 0)
(1.79831 -0.0552073 0)
(1.82507 0.050253 0)
(1.83128 0.0398999 -2.00499e-21)
(1.83802 0.030737 -9.89602e-23)
(1.83839 0.0192307 -1.69633e-22)
(1.84092 0.00958777 -2.0404e-21)
(1.83581 -0.00287922 3.80394e-21)
(1.83516 -0.0129979 -5.39053e-21)
(1.82462 -0.0263224 3.02418e-22)
(1.8228 -0.0367294 0)
(1.80733 -0.0511337 -6.72366e-21)
(1.83497 0.0435329 9.73431e-23)
(1.84085 0.0344543 1.19667e-21)
(1.84663 0.0261985 1.51482e-21)
(1.8472 0.0161169 4.54164e-23)
(1.84915 0.00734382 1.89591e-23)
(1.8445 -0.00363453 1.69379e-21)
(1.84363 -0.0128429 -3.16037e-21)
(1.83377 -0.0247319 2.35366e-22)
(1.83166 -0.0341855 0)
(1.81708 -0.0471722 1.22522e-20)
(1.84443 0.0374805 0)
(1.84991 0.0295574 1.54418e-21)
(1.85501 0.0221928 3.7436e-22)
(1.85562 0.0133706 0)
(1.85722 0.0055028 0)
(1.85298 -0.00418196 -1.42335e-21)
(1.85194 -0.0124502 2.649e-21)
(1.84287 -0.0230512 2.39025e-22)
(1.84045 -0.0315477 -8.9721e-23)
(1.82704 -0.0432073 -5.6837e-21)
(1.85328 0.0320241 0)
(1.85836 0.025149 -3.08336e-21)
(1.86292 0.0186632 -2.38164e-21)
(1.86356 0.0109726 2.34463e-22)
(1.86488 0.00401613 -1.20195e-22)
(1.86108 -0.00449549 5.46943e-23)
(1.85984 -0.0118247 -1.78927e-22)
(1.85167 -0.0212161 -1.81992e-21)
(1.84892 -0.0287625 -2.99272e-22)
(1.83682 -0.0391565 1.15705e-22)
(1.86139 0.027088 0)
(1.86612 0.0211769 1.71334e-21)
(1.87022 0.0155497 -1.34465e-22)
(1.87092 0.00890362 1.33352e-22)
(1.87197 0.00284541 0)
(1.86864 -0.00456417 0)
(1.86719 -0.0109692 0)
(1.85994 -0.0191995 2.11778e-21)
(1.85687 -0.0258146 -2.25491e-21)
(1.84607 -0.0349824 0)
(1.86865 0.0225987 0)
(1.87309 0.0175873 1.19632e-21)
(1.87679 0.0127936 1.28335e-21)
(1.87757 0.00713451 1.25676e-21)
(1.87838 0.00195344 -1.98591e-22)
(1.87552 -0.00439947 6.29245e-22)
(1.87387 -0.00990165 -5.10702e-23)
(1.86749 -0.0170043 0)
(1.86412 -0.022709 5.21252e-22)
(1.85457 -0.0306703 2.41655e-21)
(1.875 0.0185259 -3.24497e-22)
(1.8792 0.0143519 -9.90793e-22)
(1.88256 0.0103563 -1.66607e-21)
(1.88344 0.00563827 -8.92574e-22)
(1.88402 0.00130751 0)
(1.8816 -0.00402266 -7.21533e-22)
(1.87977 -0.00864477 1.37099e-22)
(1.87419 -0.0146422 4.45305e-24)
(1.87055 -0.0194542 1.06503e-21)
(1.86213 -0.0262153 -3.23439e-21)
(1.88037 0.014733 3.26164e-22)
(1.88438 0.0113853 -8.46779e-22)
(1.88746 0.00817341 6.12078e-22)
(1.88844 0.00436797 -1.26548e-21)
(1.88884 0.000865624 0)
(1.8868 -0.00346488 0)
(1.88482 -0.0072256 2.36214e-23)
(1.87993 -0.0121305 -2.57144e-23)
(1.87605 -0.0160637 5.33646e-22)
(1.86861 -0.0216226 9.01511e-22)
(1.88476 0.0111636 0)
(1.88862 0.00863624 1.33796e-21)
(1.89146 0.00619424 -4.04074e-22)
(1.89252 0.00327871 1.17685e-21)
(1.89277 0.000585358 2.7703e-22)
(1.89105 -0.00276303 -1.12986e-22)
(1.88895 -0.0056784 1.56535e-22)
(1.88462 -0.00949831 -9.98592e-24)
(1.88055 -0.0125647 0)
(1.87391 -0.0169139 0)
(1.88811 0.00785033 0)
(1.89184 0.00610152 5.74223e-22)
(1.8945 0.00439997 -8.88753e-22)
(1.89562 0.00234881 0)
(1.89577 0.000443533 -5.08273e-22)
(1.89428 -0.00194164 -1.30017e-22)
(1.89209 -0.00402893 -2.68531e-22)
(1.88819 -0.00677485 -7.38607e-24)
(1.88398 -0.00898754 2.63643e-23)
(1.87793 -0.0121265 -1.86151e-23)
(1.89037 0.00471289 0)
(1.89402 0.00372342 -5.76983e-22)
(1.89654 0.00276105 -4.39326e-22)
(1.89769 0.0015748 5.14024e-22)
(1.89777 0.000459216 2.0419e-22)
(1.89645 -0.00096497 1.79451e-22)
(1.8942 -0.00222734 4.69441e-22)
(1.89058 -0.00390418 -1.86262e-22)
(1.88626 -0.00527306 1.8535e-23)
(1.88061 -0.00720862 0)
(1.89149 0.00147966 0)
(1.89509 0.00126769 2.67755e-22)
(1.89755 0.00105575 -2.40509e-22)
(1.89872 0.000747419 2.07698e-22)
(1.89876 0.000437128 0)
(1.89751 -4.75628e-06 -1.80351e-22)
(1.89523 -0.000419209 8.18043e-23)
(1.89174 -0.000997691 1.51818e-23)
(1.88736 -0.00149549 0)
(1.88189 -0.00219846 0)
(1.23101 0.32227 0)
(1.19915 0.353718 -4.37666e-20)
(1.17563 0.393834 0)
(1.15722 0.443963 -1.43417e-19)
(1.14092 0.503778 5.72633e-20)
(1.12523 0.57547 2.93598e-21)
(1.10826 0.660515 3.79905e-20)
(1.07146 0.748245 -1.06565e-20)
(0.939007 0.7714 0)
(0.545535 0.488321 2.49636e-20)
(1.29871 0.323437 7.8189e-20)
(1.27094 0.362195 4.37648e-20)
(1.25407 0.40119 -3.84102e-20)
(1.24155 0.44982 4.84599e-20)
(1.23116 0.508962 -3.42579e-20)
(1.22286 0.579833 1.03175e-20)
(1.21457 0.66319 -4.15589e-20)
(1.18444 0.746611 -7.35867e-20)
(1.04563 0.761214 -1.93093e-20)
(0.604539 0.470054 -3.47581e-20)
(1.36502 0.318958 -3.17363e-20)
(1.34407 0.359319 3.21389e-20)
(1.33252 0.3976 3.84085e-20)
(1.32437 0.445446 3.81463e-20)
(1.31928 0.503825 3.72812e-20)
(1.31807 0.573121 3.53357e-20)
(1.31768 0.653226 1.19974e-20)
(1.29221 0.729541 2.47876e-20)
(1.14353 0.733344 4.38521e-22)
(0.652947 0.438494 -4.68115e-22)
(1.43241 0.31106 6.36279e-20)
(1.41695 0.350635 -3.21372e-20)
(1.40912 0.387298 0)
(1.40447 0.433358 0)
(1.40415 0.489676 0)
(1.40937 0.556043 1.62676e-20)
(1.41547 0.631157 -5.71113e-21)
(1.39161 0.69774 0)
(1.22884 0.689035 -7.86412e-21)
(0.686595 0.395142 1.9419e-20)
(1.49725 0.299225 -8.37479e-21)
(1.48626 0.336683 3.7255e-20)
(1.48155 0.371284 0)
(1.48019 0.414763 0)
(1.48431 0.467739 5.4549e-21)
(1.49508 0.529803 2.59689e-21)
(1.50569 0.598631 9.49941e-21)
(1.47989 0.652263 -7.74889e-21)
(1.29581 0.629565 -3.16888e-20)