/*--------------------------------*- C++ -*----------------------------------*\
| =========                 |                                                 |
| \\      /  F ield         | OpenFOAM: The Open Source CFD Toolbox           |
|  \\    /   O peration     | Version:  4.1                                   |
|   \\  /    A nd           | Web:      www.OpenFOAM.org                      |
|    \\/     M anipulation  |                                                 |
\*---------------------------------------------------------------------------*/
FoamFile
{
    version     2.0;
    format      ascii;
    class       volScalarField;
    location    "0.2";
    object      p;
}
// * * * * * * * * * * * * * * * * * * * * * * * * * * * * * * * * * * * * * //

dimensions      [0 2 -2 0 0 0 0];

internalField   nonuniform List<scalar> 
2000
(
0.323955
0.324264
0.323025
0.320724
0.317621
0.313873
0.309616
0.304949
0.29988
0.294818
0.339058
0.339388
0.338313
0.336264
0.333477
0.3301
0.326258
0.322029
0.317347
0.312522
0.35516
0.355511
0.354605
0.352816
0.350354
0.347354
0.343928
0.340142
0.335918
0.331518
0.372164
0.372533
0.371801
0.37028
0.368155
0.365546
0.362553
0.359233
0.355514
0.351636
0.389968
0.390354
0.389798
0.388552
0.386774
0.38457
0.382028
0.379196
0.376012
0.372692
0.408465
0.408865
0.408488
0.407522
0.406101
0.404315
0.40224
0.399916
0.397293
0.394557
0.427545
0.427956
0.427758
0.427078
0.426021
0.424665
0.42307
0.421272
0.419231
0.4171
0.447092
0.447511
0.447492
0.4471
0.446414
0.445495
0.444392
0.443133
0.441692
0.440182
0.466988
0.467412
0.467568
0.467466
0.467154
0.466678
0.466075
0.465365
0.464535
0.463661
0.487112
0.487536
0.487866
0.488051
0.488114
0.488084
0.487984
0.487828
0.487617
0.487385
0.243818
0.243928
0.241824
0.238254
0.233591
0.228044
0.221777
0.214919
0.20757
0.199812
0.245333
0.245458
0.243365
0.239817
0.235181
0.229664
0.22343
0.216607
0.209299
0.201564
0.248369
0.248505
0.246443
0.24294
0.238357
0.2329
0.22673
0.219978
0.212749
0.205063
0.252906
0.253057
0.251043
0.247606
0.243103
0.237735
0.231662
0.225016
0.217907
0.210311
0.258924
0.259092
0.257142
0.253794
0.249398
0.244149
0.238204
0.231696
0.224745
0.21727
0.266393
0.266583
0.264712
0.261476
0.257213
0.252115
0.24633
0.239993
0.233242
0.225945
0.275279
0.275491
0.273715
0.270615
0.266514
0.261597
0.256004
0.249868
0.243339
0.236238
0.285537
0.285773
0.284107
0.281166
0.277259
0.272558
0.267197
0.261301
0.255044
0.248229
0.297114
0.297374
0.295835
0.293079
0.289398
0.284952
0.279856
0.274218
0.268206
0.261544
0.309946
0.31023
0.308834
0.306293
0.302881
0.298753
0.294021
0.288781
0.283169
0.276911
0.191752
0.183257
0.174469
0.165448
0.15622
0.14681
0.137242
0.127536
0.117708
0.107776
0.0977525
0.08765
0.0774818
0.067266
0.0570059
0.0467009
0.0363624
0.0259976
0.0156138
0.00521446
0.193482
0.184868
0.175962
0.166838
0.157515
0.148014
0.138358
0.128567
0.118657
0.108644
0.09854
0.0883574
0.0781056
0.0678036
0.0574626
0.0470716
0.0366482
0.0261998
0.0157338
0.00525375
0.196933
0.188048
0.178897
0.169555
0.160023
0.150323
0.140475
0.130498
0.120409
0.11022
0.0999457
0.0895957
0.0791813
0.0687251
0.0582358
0.047698
0.037135
0.026548
0.0159425
0.00532196
0.202123
0.192823
0.183343
0.17371
0.163898
0.153932
0.143828
0.133602
0.123269
0.11284
0.102328
0.0917444
0.0810975
0.0703759
0.0596173
0.0488287
0.0380089
0.0271666
0.0163094
0.00544179
0.208971
0.199033
0.189083
0.179003
0.168762
0.158391
0.147903
0.13731
0.126624
0.115855
0.105012
0.0941024
0.0831351
0.0721122
0.0610528
0.0500066
0.0389268
0.027825
0.016705
0.00557161
0.217558
0.206877
0.196467
0.185929
0.175253
0.164462
0.153561
0.14256
0.131468
0.120296
0.109053
0.0977469
0.0863866
0.0749727
0.0634839
0.0519741
0.0404453
0.028899
0.0173417
0.00578016
0.227607
0.215819
0.204681
0.193401
0.182051
0.170647
0.159181
0.147654
0.136067
0.124422
0.112723
0.100973
0.0891779
0.0773417
0.0654581
0.0535643
0.0416766
0.0297825
0.0178746
0.00595597
0.239505
0.226881
0.21526
0.203427
0.191518
0.179533
0.167474
0.155348
0.143161
0.130919
0.118625
0.106286
0.093907
0.0814946
0.0690549
0.0565287
0.0439542
0.0313931
0.0188326
0.00627131
0.252021
0.23764
0.224789
0.211896
0.199122
0.186398
0.173687
0.160967
0.148226
0.135458
0.12266
0.109832
0.0969748
0.0840924
0.0711898
0.058272
0.0453346
0.0323437
0.0193822
0.00645271
0.267684
0.253803
0.240241
0.226588
0.212934
0.199295
0.185664
0.172035
0.158397
0.144745
0.131072
0.117377
0.103657
0.0899132
0.076145
0.0623502
0.0485362
0.0347102
0.0208325
0.00693053
0.27707
0.262339
0.247712
0.23319
0.218817
0.204553
0.190365
0.176228
0.162123
0.148037
0.133959
0.119883
0.105803
0.0917168
0.0776231
0.0635208
0.0494109
0.0352959
0.0211786
0.0070608
0.280638
0.265124
0.250033
0.235186
0.220546
0.206052
0.191661
0.177345
0.163083
0.148858
0.134658
0.120475
0.106302
0.0921329
0.0779653
0.0637966
0.0496252
0.0354501
0.0212707
0.00708989
0.283931
0.268308
0.252955
0.237828
0.222917
0.208169
0.193545
0.179014
0.164554
0.150149
0.135783
0.121447
0.107131
0.092831
0.0785404
0.064256
0.0499753
0.0356962
0.0214174
0.00713907
0.286961
0.271186
0.255617
0.240262
0.225124
0.210157
0.195324
0.180598
0.165957
0.151383
0.136861
0.12238
0.10793
0.0935043
0.0790961
0.0647009
0.050315
0.0359353
0.0215595
0.00718616
0.289606
0.273708
0.257977
0.242447
0.227127
0.211978
0.196968
0.182074
0.167272
0.152547
0.137883
0.123269
0.108694
0.0941502
0.0796309
0.0651304
0.050644
0.0361675
0.0216976
0.0072318
0.291949
0.275949
0.260094
0.244427
0.228959
0.213658
0.198497
0.183454
0.168511
0.153649
0.138856
0.124118
0.109427
0.0947726
0.080148
0.0655468
0.0509635
0.0363934
0.0218322
0.0072763
0.294022
0.277942
0.26199
0.246214
0.230625
0.215197
0.199907
0.184736
0.169666
0.154683
0.139772
0.124922
0.110122
0.0953649
0.0806414
0.065945
0.0512697
0.0366102
0.0219613
0.00731906
0.295853
0.279709
0.263681
0.247818
0.23213
0.216596
0.201197
0.185915
0.170735
0.155643
0.140626
0.125674
0.110776
0.0959226
0.081107
0.0663215
0.0515597
0.0368157
0.022084
0.00735967
0.297464
0.28127
0.265183
0.249251
0.233483
0.217861
0.202368
0.18699
0.171714
0.156526
0.141415
0.126371
0.111383
0.0964425
0.081542
0.066674
0.0518316
0.0370086
0.0221991
0.00739785
0.298876
0.282643
0.266511
0.250524
0.234691
0.218995
0.203424
0.187964
0.172604
0.157332
0.142138
0.127011
0.111942
0.0969222
0.0819442
0.0670004
0.0520837
0.0371877
0.0223061
0.00743334
0.300109
0.283845
0.267678
0.251648
0.235761
0.220005
0.204367
0.188837
0.173405
0.15806
0.142792
0.127592
0.112451
0.09736
0.082312
0.0672993
0.0523149
0.0373521
0.0224044
0.00746596
0.301177
0.28489
0.268696
0.252632
0.236702
0.220895
0.205202
0.189613
0.174119
0.158711
0.143379
0.128114
0.112909
0.0977548
0.0826441
0.0675696
0.0525242
0.037501
0.0224935
0.00749556
0.302094
0.285789
0.269575
0.253485
0.23752
0.221672
0.205933
0.190294
0.174747
0.159285
0.143897
0.128577
0.113316
0.0981058
0.0829399
0.0678106
0.052711
0.037634
0.0225731
0.00752203
0.302873
0.286554
0.270325
0.254214
0.238221
0.22234
0.206562
0.190882
0.175292
0.159783
0.144348
0.12898
0.113671
0.0984129
0.0831989
0.0680219
0.0528749
0.0377508
0.022643
0.00754529
0.303523
0.287193
0.270954
0.254827
0.238812
0.222903
0.207095
0.191381
0.175754
0.160207
0.144733
0.129325
0.113975
0.0986757
0.0834209
0.0682032
0.0530155
0.0378511
0.0227031
0.00756528
0.304053
0.287715
0.271467
0.255328
0.239297
0.223367
0.207534
0.191793
0.176136
0.160558
0.145052
0.12961
0.114227
0.0988944
0.0836058
0.0683542
0.0531328
0.0379348
0.0227533
0.00758197
0.304469
0.288125
0.271872
0.255724
0.23968
0.223734
0.207882
0.192119
0.17644
0.160837
0.145306
0.129838
0.114428
0.099069
0.0837535
0.068475
0.0532267
0.0380018
0.0227934
0.00759534
0.304778
0.288429
0.272172
0.256018
0.239964
0.224006
0.208141
0.192362
0.176666
0.161046
0.145495
0.130009
0.114579
0.0991998
0.0838642
0.0685655
0.0532971
0.038052
0.0228236
0.00760538
0.304979
0.28863
0.27237
0.256212
0.240152
0.224187
0.208312
0.192524
0.176816
0.161184
0.145622
0.130122
0.114679
0.0992869
0.0839379
0.0686259
0.053344
0.0380855
0.0228437
0.00761208
0.305092
0.288733
0.272471
0.25631
0.240246
0.224277
0.208398
0.192604
0.176891
0.161253
0.145684
0.130179
0.114729
0.0993303
0.0839748
0.068656
0.0533674
0.0381023
0.0228537
0.00761547
0.487356
0.46345
0.439783
0.416503
0.393756
0.371678
0.350403
0.330068
0.310918
0.29282
0.487773
0.464636
0.441727
0.419186
0.397143
0.375715
0.355002
0.335088
0.316037
0.297143
0.488001
0.465229
0.442667
0.420445
0.398687
0.377512
0.357028
0.337351
0.318685
0.300149
0.488252
0.465918
0.443787
0.421983
0.400621
0.37981
0.359641
0.340202
0.321666
0.303207
0.48846
0.46648
0.444689
0.423206
0.40214
0.381595
0.361663
0.342436
0.32409
0.305841
0.488653
0.467008
0.445544
0.424371
0.403594
0.38331
0.363603
0.344557
0.326326
0.30823
0.488825
0.467478
0.446302
0.4254
0.404873
0.384811
0.365296
0.34641
0.328284
0.310338
0.488982
0.46791
0.446998
0.426346
0.406047
0.386187
0.366841
0.348089
0.330039
0.312212
0.489124
0.468302
0.447631
0.427203
0.407108
0.387426
0.368227
0.349589
0.331597
0.313865
0.489255
0.468662
0.448211
0.427989
0.408078
0.388554
0.369483
0.350937
0.332985
0.315322
0.489374
0.468993
0.448744
0.428709
0.408964
0.38958
0.370618
0.352147
0.334219
0.316602
0.489483
0.469298
0.449235
0.42937
0.409775
0.390514
0.371646
0.353232
0.335314
0.31772
0.489583
0.469579
0.449688
0.429979
0.410519
0.391367
0.372577
0.354203
0.336282
0.318691
0.489676
0.469839
0.450106
0.43054
0.411202
0.392145
0.373419
0.355073
0.337135
0.319528
0.489761
0.470079
0.450492
0.431056
0.411827
0.392852
0.374178
0.355846
0.337881
0.320238
0.489839
0.470303
0.450851
0.431536
0.412404
0.393501
0.374865
0.356535
0.338531
0.320834
0.48991
0.470506
0.451177
0.431968
0.412922
0.394078
0.375471
0.357132
0.339081
0.321314
0.489979
0.470705
0.451495
0.432389
0.413423
0.39463
0.376039
0.357677
0.339562
0.3217
0.490032
0.470857
0.451738
0.43271
0.413803
0.395047
0.376466
0.358082
0.33991
0.321961
0.490106
0.471077
0.45209
0.43317
0.41434
0.395621
0.37703
0.358584
0.340295
0.322183
0.704466
0.69951
0.694401
0.689662
0.685306
0.681412
0.678097
0.675489
0.673825
0.673687
0.686732
0.6819
0.677123
0.67279
0.668814
0.66525
0.662204
0.65979
0.658222
0.658043
0.667648
0.663184
0.658834
0.65491
0.651313
0.648086
0.645318
0.643106
0.641641
0.641421
0.647409
0.643439
0.639573
0.636089
0.632893
0.630019
0.627543
0.625545
0.624191
0.623932
0.626236
0.6228
0.619453
0.616435
0.613661
0.61116
0.608991
0.607219
0.605984
0.605689
0.604265
0.601392
0.598593
0.596065
0.593734
0.591622
0.589775
0.588243
0.587136
0.58681
0.581631
0.579347
0.577121
0.575102
0.573233
0.571528
0.570017
0.568735
0.567765
0.567414
0.558477
0.556802
0.555168
0.553678
0.552286
0.551
0.549839
0.548818
0.547995
0.547623
0.534949
0.5339
0.532873
0.531924
0.531023
0.530168
0.529366
0.528617
0.527947
0.527561
0.5112
0.510789
0.510378
0.50998
0.509577
0.509162
0.508728
0.508258
0.507754
0.507346
0.800951
0.793256
0.78598
0.779203
0.773024
0.76757
0.762998
0.759505
0.75744
0.757539
0.799177
0.791499
0.784259
0.777515
0.771364
0.765934
0.761382
0.757902
0.755838
0.755942
0.795632
0.787991
0.780826
0.774145
0.768049
0.762667
0.758154
0.754701
0.752646
0.752742
0.790315
0.782745
0.775694
0.769108
0.763095
0.757786
0.753332
0.74992
0.747882
0.747964
0.783263
0.775794
0.76889
0.762429
0.756527
0.751315
0.746941
0.743585
0.741571
0.741633
0.774467
0.767155
0.760439
0.754135
0.748372
0.743285
0.739013
0.735729
0.733746
0.733783
0.764032
0.756891
0.750387
0.744264
0.738669
0.733735
0.729589
0.726394
0.724451
0.72446
0.751857
0.744984
0.738744
0.732845
0.727458
0.72271
0.718718
0.715633
0.713741
0.713717
0.738323
0.731597
0.7256
0.719941
0.714795
0.710269
0.706462
0.70351
0.70168
0.70162
0.722643
0.716409
0.710804
0.70552
0.700712
0.696471
0.69289
0.690098
0.688345
0.688247
0.994794
0.984412
0.974047
0.963703
0.953385
0.943102
0.932865
0.922672
0.91253
0.902456
0.892464
0.882567
0.872778
0.863115
0.853593
0.844234
0.835062
0.826101
0.817379
0.808949
0.994755
0.984292
0.973844
0.963416
0.953013
0.942644
0.932324
0.922045
0.911819
0.901664
0.891592
0.881613
0.871741
0.861991
0.852381
0.84293
0.83366
0.824596
0.815756
0.807205
0.994686
0.984081
0.973493
0.962925
0.952381
0.941865
0.931395
0.920961
0.910572
0.90025
0.890006
0.879851
0.869798
0.859862
0.850058
0.840404
0.830924
0.821639
0.812554
0.803726
0.994566
0.983713
0.972872
0.962047
0.951245
0.940475
0.929737
0.919038
0.908415
0.897857
0.887374
0.876977
0.866677
0.856488
0.846424
0.836501
0.826737
0.817154
0.80774
0.798489
0.994434
0.983313
0.972207
0.961121
0.950058
0.939026
0.927987
0.916986
0.906043
0.895159
0.884343
0.873603
0.862949
0.852391
0.84194
0.831608
0.821408
0.811368
0.801479
0.791579
0.994226
0.982676
0.971132
0.959599
0.948084
0.93659
0.925121
0.913727
0.902388
0.891105
0.879885
0.868738
0.857673
0.846699
0.835828
0.825067
0.814424
0.803913
0.793559
0.782901
0.994048
0.982138
0.970239
0.958356
0.946481
0.934603
0.922737
0.91092
0.899145
0.887416
0.875739
0.864117
0.852554
0.841052
0.829611
0.818232
0.806909
0.795639
0.784545
0.77275
0.993733
0.981182
0.96863
0.956081
0.943518
0.931007
0.918582
0.906186
0.893823
0.881501
0.869224
0.856998
0.844826
0.832715
0.820667
0.808691
0.79679
0.784943
0.773351
0.760695
0.993548
0.980623
0.96767
0.95469
0.941763
0.928859
0.91597
0.903101
0.890258
0.877444
0.86466
0.851904
0.839176
0.826466
0.813763
0.801044
0.788275
0.775357
0.762527
0.748041
0.993074
0.979181
0.965311
0.951492
0.937689
0.923906
0.910149
0.896417
0.882708
0.869023
0.855359
0.841713
0.828079
0.814448
0.80081
0.787153
0.773467
0.759755
0.746135
0.731993
0.992943
0.978833
0.964723
0.950616
0.936514
0.922419
0.908332
0.894253
0.880178
0.866105
0.852029
0.83794
0.823829
0.809679
0.795469
0.781171
0.766748
0.752149
0.737383
0.722399
0.992912
0.978736
0.964561
0.95039
0.936223
0.922058
0.907894
0.893728
0.879555
0.865371
0.851167
0.836935
0.822659
0.808324
0.793905
0.779371
0.764679
0.74976
0.734555
0.718922
0.992862
0.978587
0.964311
0.950034
0.935755
0.921473
0.907183
0.892882
0.878565
0.864224
0.849851
0.835435
0.82096
0.806407
0.791752
0.776965
0.762003
0.74681
0.731356
0.715627
0.992814
0.978442
0.964067
0.949687
0.935301
0.920905
0.906495
0.892065
0.87761
0.863122
0.84859
0.834002
0.819342
0.804592
0.789728
0.774721
0.759533
0.744118
0.728463
0.712595
0.992768
0.978301
0.96383
0.949351
0.934862
0.920359
0.905835
0.891285
0.876703
0.862079
0.847402
0.83266
0.817838
0.802917
0.787876
0.772688
0.757321
0.741738
0.725932
0.70995
0.992722
0.978164
0.963599
0.949025
0.934437
0.919831
0.9052
0.890537
0.875836
0.861087
0.846279
0.831399
0.816433
0.801364
0.786171
0.770833
0.755322
0.739606
0.723685
0.707608
0.992679
0.978032
0.963378
0.948713
0.934031
0.919328
0.904596
0.889828
0.875017
0.860154
0.845227
0.830224
0.815131
0.799933
0.784612
0.769148
0.753519
0.737699
0.721689
0.705538
0.992637
0.977907
0.963168
0.948417
0.933647
0.918853
0.904027
0.889163
0.874252
0.859284
0.844251
0.829138
0.813935
0.798626
0.783196
0.767628
0.751903
0.735999
0.719919
0.70371
0.992598
0.977789
0.962972
0.94814
0.933288
0.91841
0.903498
0.888545
0.873543
0.858482
0.843353
0.828145
0.812845
0.797441
0.781918
0.766263
0.75046
0.73449
0.718357
0.702103
0.992562
0.97768
0.962789
0.947883
0.932956
0.918001
0.90301
0.887977
0.872893
0.857748
0.842535
0.827242
0.811859
0.796373
0.780773
0.765046
0.749179
0.733157
0.716982
0.700695
0.992529
0.97758
0.962622
0.947648
0.932652
0.917627
0.902565
0.887459
0.872302
0.857084
0.841797
0.826431
0.810975
0.79542
0.779755
0.763968
0.748049
0.731987
0.71578
0.699467
0.992499
0.977489
0.96247
0.947435
0.932377
0.917289
0.902164
0.886994
0.871772
0.85649
0.841138
0.825708
0.810191
0.794577
0.778857
0.763021
0.747061
0.730966
0.714736
0.698403
0.992472
0.977408
0.962335
0.947245
0.932132
0.916988
0.901807
0.886581
0.871303
0.855964
0.840557
0.825073
0.809503
0.79384
0.778075
0.762199
0.746205
0.730084
0.713837
0.69749
0.992448
0.977337
0.962216
0.947078
0.931917
0.916725
0.901496
0.886221
0.870894
0.855507
0.840053
0.824523
0.808909
0.793205
0.777402
0.761494
0.745473
0.729333
0.713073
0.696715
0.992428
0.977276
0.962114
0.946935
0.931733
0.9165
0.901229
0.885913
0.870545
0.855118
0.839624
0.824056
0.808406
0.792668
0.776835
0.7609
0.744858
0.728704
0.712435
0.696069
0.992411
0.977225
0.962029
0.946816
0.93158
0.916312
0.901007
0.885657
0.870256
0.854795
0.839269
0.82367
0.807991
0.792226
0.776368
0.760413
0.744355
0.728189
0.711914
0.695542
0.992397
0.977184
0.961961
0.946721
0.931457
0.916162
0.90083
0.885453
0.870025
0.854538
0.838987
0.823363
0.807662
0.791876
0.776
0.760029
0.743958
0.727784
0.711505
0.69513
0.992387
0.977154
0.96191
0.946649
0.931365
0.91605
0.900697
0.8853
0.869852
0.854346
0.838776
0.823135
0.807416
0.791615
0.775726
0.759743
0.743664
0.727484
0.711201
0.694823
0.99238
0.977133
0.961876
0.946602
0.931304
0.915975
0.900609
0.885199
0.869738
0.854219
0.838636
0.822983
0.807253
0.791442
0.775544
0.759554
0.743469
0.727286
0.711001
0.694624
0.992377
0.977123
0.961859
0.946578
0.931273
0.915938
0.900565
0.885148
0.86968
0.854155
0.838566
0.822907
0.807172
0.791356
0.775453
0.75946
0.743372
0.727186
0.710898
0.694512
0.706404
0.688255
0.669044
0.648631
0.627274
0.60512
0.582307
0.558974
0.535271
0.511347
0.702256
0.683185
0.664038
0.644055
0.623266
0.601771
0.57967
0.557084
0.534145
0.510992
0.699265
0.680569
0.661821
0.642094
0.621542
0.600305
0.578493
0.556228
0.533636
0.510849
0.696227
0.677612
0.658991
0.639505
0.619274
0.598408
0.577001
0.55516
0.533003
0.510657
0.693605
0.675213
0.656789
0.637524
0.617535
0.59694
0.575831
0.554313
0.532499
0.510507
0.691226
0.672999
0.654694
0.635612
0.615853
0.595523
0.574707
0.553503
0.532017
0.510362
0.689126
0.671062
0.652869
0.633948
0.614385
0.59428
0.573716
0.552785
0.531589
0.510232
0.687263
0.669327
0.651214
0.632428
0.613038
0.593137
0.572804
0.552124
0.531193
0.510111
0.68562
0.667788
0.649737
0.631065
0.611824
0.592103
0.571975
0.551521
0.530832
0.51
0.684173
0.666419
0.64841
0.62983
0.610719
0.591157
0.571214
0.550967
0.530499
0.509897
0.682904
0.665203
0.647221
0.628714
0.609713
0.590293
0.570517
0.550457
0.530191
0.509802
0.681795
0.664125
0.646154
0.627703
0.608796
0.5895
0.569874
0.549985
0.529906
0.509712
0.680834
0.663172
0.645199
0.626788
0.60796
0.588772
0.569282
0.549549
0.529642
0.509629
0.680006
0.662333
0.644344
0.62596
0.607195
0.588103
0.568734
0.549145
0.529395
0.50955
0.679304
0.6616
0.643584
0.625212
0.606499
0.587489
0.568229
0.54877
0.529166
0.509477
0.678716
0.660961
0.642906
0.624534
0.605859
0.58692
0.567758
0.548419
0.528951
0.509407
0.678241
0.660419
0.642318
0.623936
0.605289
0.586409
0.567333
0.548101
0.528755
0.509343
0.67786
0.659947
0.64178
0.623374
0.604742
0.585913
0.566916
0.547786
0.528561
0.509278
0.677602
0.659602
0.64138
0.622951
0.604329
0.585536
0.566599
0.547547
0.528412
0.509229
0.677384
0.659222
0.640882
0.622389
0.603755
0.584999
0.566138
0.547194
0.528191
0.509153
)
;

boundaryField
{
    bottom
    {
        type            symmetryPlane;
    }
    right
    {
        type            fixedValue;
        value           uniform 0;
    }
    top
    {
        type            symmetryPlane;
    }
    left
    {
        type            fixedValue;
        value           uniform 1;
    }
    cylinder
    {
        type            zeroGradient;
    }
    defaultFaces
    {
        type            empty;
    }
}


// ************************************************************************* //
