/*--------------------------------*- C++ -*----------------------------------*\
| =========                 |                                                 |
| \\      /  F ield         | OpenFOAM: The Open Source CFD Toolbox           |
|  \\    /   O peration     | Version:  4.1                                   |
|   \\  /    A nd           | Web:      www.OpenFOAM.org                      |
|    \\/     M anipulation  |                                                 |
\*---------------------------------------------------------------------------*/
FoamFile
{
    version     2.0;
    format      ascii;
    class       surfaceScalarField;
    location    "0.2";
    object      phi;
}
// * * * * * * * * * * * * * * * * * * * * * * * * * * * * * * * * * * * * * //

dimensions      [0 3 -1 0 0 0 0];

internalField   nonuniform List<scalar> 
3890
(
0.000146787
-0.00206002
0.00191323
0.00035904
-0.0029888
0.00277654
0.000573778
-0.00302784
0.00281311
0.000778971
-0.00289759
0.0026924
0.000973792
-0.00276385
0.00256903
0.00115825
-0.00265243
0.00246797
0.00133047
-0.00256254
0.00239032
0.00148724
-0.00248883
0.00233206
0.00162994
-0.00242338
0.00228068
-0.00235335
0.00222721
0.00175609
0.000133478
-0.0021935
0.000325997
-0.00318131
0.000520141
-0.00322199
0.000704791
-0.00308224
0.000879026
-0.00293808
0.00104303
-0.00281643
0.00119643
-0.00271594
0.00133929
-0.0026317
0.00147555
-0.00255963
-0.00249922
0.00162141
0.000119472
-0.00231297
0.000291364
-0.00335321
0.000464366
-0.00339499
0.000628638
-0.00324651
0.000783586
-0.00309303
0.000929933
-0.00296277
0.00106846
-0.00285446
0.00120041
-0.00276366
0.00132848
-0.0026877
-0.00262686
0.00145612
0.000104913
-0.00241789
0.000255478
-0.00350377
0.000406824
-0.00354634
0.000550491
-0.00339018
0.000686151
-0.00322869
0.00081472
-0.00309134
0.000937216
-0.00297696
0.00105482
-0.00288126
0.00116904
-0.00280191
-0.00273879
0.00128097
8.98826e-05
-0.00250777
0.000218514
-0.0036324
0.000347686
-0.00367551
0.000470333
-0.00351282
0.000586305
-0.00334466
0.000696506
-0.00320154
0.000801888
-0.00308234
0.000903392
-0.00298277
0.00100194
-0.00290046
-0.00283488
0.00109802
7.4436e-05
-0.0025822
0.000180598
-0.00373856
0.000287091
-0.003782
0.000388239
-0.00361397
0.000484007
-0.00344043
0.000575195
-0.00329273
0.000662607
-0.00316975
0.000746981
-0.00306714
0.000828984
-0.00298246
-0.00291482
0.000908933
5.86282e-05
-0.00264083
0.000141854
-0.00382179
0.000225207
-0.00386536
0.000304388
-0.00369315
0.000379441
-0.00351548
0.000451018
-0.00336431
0.000519755
-0.00323849
0.000586218
-0.00313361
0.000650916
-0.00304716
-0.00297798
0.000714076
4.25241e-05
-0.00268336
0.000102425
-0.00388169
0.000162247
-0.00392518
0.000219059
-0.00374996
0.000272954
-0.00356938
0.000324417
-0.00341577
0.000373906
-0.00328797
0.000421826
-0.00318152
0.000468539
-0.00309387
-0.00302364
0.000514194
2.62158e-05
-0.00270957
6.24827e-05
-0.00391796
9.84749e-05
-0.00396117
0.000132609
-0.0037841
0.000165008
-0.00360178
0.000195978
-0.00344674
0.000225794
-0.00331779
0.000254698
-0.00321043
0.000282908
-0.00312208
-0.00305122
0.000310491
9.93574e-06
-0.00271951
2.221e-05
-0.00393023
3.41819e-05
-0.00397314
4.54492e-05
-0.00379536
5.61431e-05
-0.00361247
6.63858e-05
-0.00345698
7.62668e-05
-0.00332767
8.58668e-05
-0.00322003
9.52553e-05
-0.00313147
0.00010443
-0.0030604
0.000208474
-0.000208473
0.000511329
-0.000302856
0.000817019
-0.00030569
0.001108
-0.000290979
0.00138353
-0.000275533
0.0016455
-0.000261972
0.00189579
-0.000250283
0.00213598
-0.00024019
0.00236737
-0.000231396
-0.000223392
0.00259077
0.000207765
-0.000416238
0.000508828
-0.000603919
0.00081319
-0.000610051
0.00110305
-0.000580838
0.00137759
-0.000550073
0.00163869
-0.000523074
0.00188822
-0.00049981
0.00212776
-0.000479727
0.00235867
-0.000462306
-0.000446563
0.00258184
0.000205762
-0.000621999
0.000504199
-0.000902356
0.000805889
-0.000911742
0.00109336
-0.000868312
0.00136583
-0.000822542
0.00162513
-0.000782375
0.00187308
-0.000747756
0.00211123
-0.000717876
0.00234103
-0.000692108
-0.000669186
0.00256365
0.000202818
-0.000824816
0.000497103
-0.00119664
0.000794753
-0.00120939
0.00107863
-0.00115219
0.00134799
-0.00109189
0.00160457
-0.00103896
0.00185009
-0.000993269
0.00208591
-0.000953704
0.00231337
-0.000919561
-0.000889189
0.00253337
0.000198825
-0.00102364
0.000487408
-0.00148522
0.000779549
-0.00150153
0.00105857
-0.00143121
0.00132377
-0.00135709
0.00157685
-0.00129204
0.00181935
-0.00123577
0.00205248
-0.00118684
0.00227748
-0.00114456
-0.00110751
0.0024958
0.000193683
-0.00121732
0.000474891
-0.00176643
0.000759915
-0.00178656
0.00103271
-0.00170401
0.00129269
-0.00161708
0.00154152
-0.00154087
0.00178051
-0.00147476
0.00201033
-0.00141665
0.00223131
-0.00136555
-0.00131953
0.00244333
0.000187272
-0.0014046
0.000459239
-0.0020384
0.000735322
-0.00206264
0.00100032
-0.001969
0.00125395
-0.00187071
0.00149808
-0.001785
0.00173416
-0.00171083
0.00196276
-0.00164526
0.00218381
-0.0015866
-0.00153335
0.00239763
0.000179447
-0.00158404
0.000440061
-0.00229901
0.000705026
-0.00232761
0.000960194
-0.00222417
0.0012058
-0.00211632
0.00144424
-0.00202344
0.00167737
-0.00194397
0.00190535
-0.00187324
0.00212521
-0.00180646
-0.00173619
0.00232804
0.000170075
-0.00175412
0.000416961
-0.0025459
0.000668165
-0.00257881
0.000910705
-0.00246671
0.00114558
-0.0023512
0.00137663
-0.00225449
0.00160871
-0.00217605
0.00184652
-0.00211104
0.00209042
-0.00205036
-0.00196946
0.0023237
0.000159118
0.000389764
0.000624061
0.000849748
0.00106758
0.00128106
0.00149533
0.00171635
0.00194667
0.00220442
0.00267902
-8.82572e-05
0.0027542
-7.51765e-05
0.00281742
-6.32157e-05
0.00287058
-5.316e-05
0.00291499
-4.4416e-05
0.00295172
-3.6732e-05
0.00298169
-2.99627e-05
0.00300565
-2.39653e-05
0.00302426
-1.86058e-05
0.00303802
-1.37554e-05
0.00304729
-9.27116e-06
0.0030522
-4.91443e-06
0.00305308
-8.7727e-07
0.00305117
1.91017e-06
0.00304739
3.77429e-06
0.00304169
5.70215e-06
0.00303408
7.61021e-06
0.00302457
9.50935e-06
0.00301319
1.13822e-05
1.29547e-05
0.00267235
-0.000178768
0.00274785
-0.000150682
0.00281109
-0.00012645
0.0028643
-0.000106375
0.00290878
-8.88983e-05
0.00294564
-7.35873e-05
0.00297581
-6.01356e-05
0.00300009
-4.82411e-05
0.00301912
-3.76362e-05
0.00303344
-2.80745e-05
0.00304347
-1.93021e-05
0.00304951
-1.09636e-05
0.00305123
-2.59187e-06
0.00305009
3.05131e-06
0.00304705
6.81292e-06
0.00304203
1.07192e-05
0.00303509
1.45485e-05
0.00302626
1.83364e-05
0.0030156
2.20478e-05
2.51401e-05
0.00265815
-0.000273264
0.00273445
-0.00022698
0.00279835
-0.000190356
0.00285217
-0.00016019
0.00289713
-0.000133856
0.00293445
-0.00011091
0.00296515
-9.08312e-05
0.00299004
-7.31342e-05
0.00300981
-5.74028e-05
0.00302499
-4.32552e-05
0.00303599
-3.02992e-05
0.00304302
-1.80023e-05
0.00304592
-5.48823e-06
0.00304613
2.84318e-06
0.00304401
8.93234e-06
0.00304025
1.44798e-05
0.00303485
1.99461e-05
0.00302775
2.54339e-05
0.00301891
3.08952e-05
3.55927e-05
0.00263185
-0.000371739
0.00270845
-0.00030358
0.00277346
-0.000255375
0.00282841
-0.000215135
0.00287455
-0.000179996
0.00291319
-0.000149552
0.00294534
-0.000122975
0.00297181
-9.96058e-05
0.00299331
-7.89043e-05
0.00301044
-6.03862e-05
0.00302373
-4.35867e-05
0.00303371
-2.79829e-05
0.00304079
-1.25704e-05
0.00304332
3.06971e-07
0.00304341
8.84663e-06
0.00304178
1.61073e-05
0.0030384
2.33294e-05
0.00303331
3.05281e-05
0.00302657
3.76352e-05
4.36873e-05
0.0025989
-0.000474835
0.00267603
-0.000380711
0.00274287
-0.000322216
0.00279909
-0.000271351
0.00284635
-0.000227259
0.00288616
-0.00018936
0.00291961
-0.000156419
0.00294759
-0.000127586
0.00297083
-0.00010215
0.00298993
-7.94861e-05
0.00300536
-5.90192e-05
0.00301751
-4.01311e-05
0.00302675
-2.18099e-05
0.00303243
-5.37124e-06
0.0030346
6.67258e-06
0.00303547
1.52346e-05
0.00303522
2.35836e-05
0.00303372
3.20298e-05
0.0030308
4.05551e-05
4.82019e-05
0.00254806
-0.00057956
0.00262483
-0.000457489
0.00269432
-0.000391699
0.00275359
-0.000330625
0.00280444
-0.000278104
0.00284791
-0.000232834
0.00288491
-0.000193416
0.0029163
-0.000158977
0.00294288
-0.000128724
0.00296535
-0.000101956
0.00298437
-7.80459e-05
0.00300064
-5.63962e-05
0.00301521
-3.63854e-05
0.00302696
-1.71236e-05
0.00303417
-5.34897e-07
0.00303875
1.06533e-05
0.00304194
2.04013e-05
0.00304368
3.02859e-05
0.00304408
4.01517e-05
4.88304e-05
0.00250284
-0.000684765
0.00257791
-0.000532565
0.00264567
-0.000459451
0.00270304
-0.000388002
0.00275304
-0.000328097
0.00279688
-0.000276676
0.00283544
-0.000231977
0.00286936
-0.000192902
0.00289916
-0.000158521
0.00292528
-0.000128075
0.00294814
-0.000100912
0.00296818
-7.64364e-05
0.00298588
-5.40798e-05
0.00300196
-3.32102e-05
0.00301415
-1.27197e-05
0.00302365
1.15185e-06
0.00303075
1.33057e-05
0.00303777
2.32648e-05
0.00304407
3.38495e-05
4.38485e-05
0.00242213
-0.000778847
0.00250505
-0.000615486
0.00258197
-0.000536371
0.00264891
-0.000454943
0.00270675
-0.000385939
0.00275641
-0.000326337
0.00279928
-0.00027484
0.0028366
-0.000230222
0.00286941
-0.000191332
0.00289854
-0.000157211
0.00292469
-0.00012706
0.00294846
-0.000100207
0.00297046
-7.60761e-05
0.00299146
-5.42085e-05
0.00301304
-3.43033e-05
0.00303017
-1.59803e-05
0.00304299
4.87425e-07
0.00305471
1.15487e-05
0.00306581
2.27457e-05
3.33729e-05
0.00237645
-0.000831604
0.00243425
-0.000673288
0.0024878
-0.000589915
0.00254361
-0.000510754
0.00259891
-0.000441236
0.00265178
-0.000379205
0.00270107
-0.000324138
0.00274635
-0.000275498
0.00278763
-0.000232614
0.00282519
-0.000194774
0.00285942
-0.000161287
0.00289073
-0.000131512
0.00291954
-0.000104887
0.00294628
-8.0954e-05
0.00297143
-5.94525e-05
0.00299581
-4.03609e-05
0.00301888
-2.25803e-05
0.0030371
-6.66704e-06
0.0030536
6.24489e-06
1.52648e-05
0.002293
-0.000920186
0.00241417
-0.00079446
0.00249895
-0.000674689
0.00256408
-0.000575884
0.00261791
-0.00049507
0.00266537
-0.000426664
0.00270869
-0.000367456
0.00274889
-0.000315705
0.00278656
-0.000270277
0.00282208
-0.000230295
0.00285581
-0.00019502
0.00288811
-0.000163807
0.00291932
-0.000136101
0.00294981
-0.000111441
0.00297984
-8.94825e-05
0.00300944
-6.99633e-05
0.00303945
-5.2597e-05
0.00306986
-3.70699e-05
0.00309917
-2.3069e-05
-1.09334e-05
0.00302849
-0.000771223
-0.00317745
0.00295295
-0.000718921
0.00290564
-0.00062738
0.00287469
-0.000544933
0.00285412
-0.000474496
0.00284081
-0.000413353
0.00283287
-0.000359523
0.00282895
-0.000311778
0.00282796
-0.000269287
0.00282906
-0.000231401
0.00283161
-0.000197568
0.0028351
-0.000167296
0.00283914
-0.000140148
0.00284345
-0.000115746
0.00284773
-9.37657e-05
0.00285167
-7.39007e-05
0.0028549
-5.58301e-05
0.00285714
-3.93064e-05
0.00285816
-2.40919e-05
-1.13896e-05
0.00315164
-0.000635793
-0.00328707
0.00304878
-0.000616063
0.00298147
-0.00056007
0.00293724
-0.000500699
0.0029073
-0.000444552
0.00288675
-0.000392804
0.00287278
-0.000345553
0.0028636
-0.000302597
0.00285795
-0.000263646
0.00285493
-0.000228376
0.00285382
-0.000196456
0.00285407
-0.000167553
0.00285527
-0.000141349
0.00285707
-0.000117543
0.00285916
-9.58553e-05
0.00286127
-7.60073e-05
0.00286315
-5.77124e-05
0.00286454
-4.06965e-05
0.00286525
-2.48018e-05
-1.13977e-05
0.00317859
-0.000552773
-0.00326161
0.00309772
-0.000535191
0.00303595
-0.0004983
0.00299042
-0.000455168
0.00295688
-0.000411009
0.00293217
-0.000368093
0.00291407
-0.000327457
0.002901
-0.000289527
0.00289177
-0.000254419
0.00288549
-0.000222093
0.00288145
-0.000192413
0.00287909
-0.000165198
0.00287798
-0.000140238
0.00287775
-0.000117313
0.00287809
-9.61952e-05
0.00287873
-7.66483e-05
0.00287944
-5.84226e-05
0.00288002
-4.12691e-05
0.00288033
-2.51114e-05
-1.14896e-05
0.00319648
-0.000483589
-0.00326567
0.00313172
-0.000470424
0.0030773
-0.000443888
0.00303369
-0.00041155
0.00299935
-0.000376671
0.00297258
-0.000341328
0.0029519
-0.000306774
0.00293607
-0.000273697
0.0029241
-0.000242453
0.0029152
-0.00021319
0.00290871
-0.000185927
0.00290412
-0.000160604
0.00290099
-0.000137106
0.00289896
-0.000115286
0.00289774
-9.49742e-05
0.00289707
-7.59801e-05
0.00289674
-5.8096e-05
0.00289659
-4.11157e-05
0.00289651
-2.50266e-05
-1.14515e-05
0.00321103
-0.000427281
-0.00326734
0.00315663
-0.000416024
0.00310858
-0.000395843
0.00306792
-0.000370884
0.0030343
-0.000343054
0.00300692
-0.000313951
0.00298487
-0.000284722
0.00296728
-0.000256101
0.00295337
-0.000228545
0.00294249
-0.000202309
0.00293407
-0.000177515
0.00292766
-0.000154191
0.00292285
-0.000132298
0.00291932
-0.000111753
0.00291678
-9.2437e-05
0.00291501
-7.42067e-05
0.00291381
-5.68962e-05
0.00291303
-4.03426e-05
0.00291259
-2.45808e-05
-1.12586e-05
0.00322337
-0.000377467
-0.00327318
0.0031759
-0.000368561
0.00313291
-0.000352851
0.00309527
-0.000333239
0.00306305
-0.000310835
0.00303592
-0.000286819
0.00301334
-0.000262147
0.00299474
-0.000237504
0.00297956
-0.000213358
0.00296726
-0.000190015
0.0029574
-0.000167653
0.00294957
-0.00014636
0.00294343
-0.000126153
0.00293867
-0.000106998
0.00293506
-8.88219e-05
0.00293237
-7.15219e-05
0.00293045
-5.49718e-05
0.00292915
-3.90476e-05
0.00292839
-2.38201e-05
-1.09267e-05
0.00323312
-0.000333392
-0.0032772
0.00319094
-0.000326383
0.00315213
-0.000314033
0.00311733
-0.000298446
0.00308678
-0.000280286
0.00306038
-0.000260416
0.00303784
-0.000239608
0.00301879
-0.000218457
0.00300284
-0.000197407
0.00298959
-0.000176767
0.00297869
-0.000156745
0.00296979
-0.00013746
0.0029626
-0.000118968
0.00295688
-0.000101273
0.00295239
-8.43387e-05
0.00294897
-6.80958e-05
0.00294645
-5.24528e-05
0.00294472
-3.73195e-05
0.00294369
-2.2793e-05
-1.04718e-05
0.00324072
-0.000293763
-0.00328035
0.00320277
-0.000288436
0.00316745
-0.000278711
0.00313525
-0.000266252
0.00310643
-0.000251465
0.00308101
-0.000234993
0.00305886
-0.000217454
0.00303975
-0.00019935
0.00302342
-0.000181076
0.00300958
-0.000162928
0.00299795
-0.000145118
0.00298827
-0.000127782
0.00298031
-0.000110999
0.00297383
-9.47986e-05
0.00296866
-7.91716e-05
0.00296465
-6.40779e-05
0.00296165
-4.94543e-05
0.00295957
-3.52386e-05
0.00295832
-2.15462e-05
-9.91317e-06
0.00324645
-0.000258023
-0.00328219
0.00321205
-0.000254035
0.00317972
-0.000246385
0.00314987
-0.000236401
0.00312273
-0.00022433
0.0030984
-0.000210664
0.00307685
-0.000195895
0.00305794
-0.00018044
0.0030415
-0.000164643
0.00302735
-0.000148774
0.00301526
-0.000133034
0.00300505
-0.000117566
0.00299651
-0.000102459
0.00298947
-8.77595e-05
0.00298378
-7.34786e-05
0.0029793
-5.95978e-05
0.00297592
-4.60767e-05
0.00297356
-3.2876e-05
0.00297213
-2.01222e-05
-9.26973e-06
0.00325069
-0.000225578
-0.00328313
0.0032193
-0.000222649
0.00318957
-0.000216649
0.00316181
-0.000208645
0.00313627
-0.000198786
0.00311306
-0.000187454
0.0030922
-0.000175041
0.00307365
-0.000161892
0.00305731
-0.000148301
0.00304305
-0.000134507
0.00303071
-0.000120694
0.00302014
-0.000107001
0.0030112
-9.35215e-05
0.00300375
-8.03106e-05
0.00299767
-6.73928e-05
0.00299284
-5.47654e-05
0.00298917
-4.24061e-05
0.00298658
-3.02933e-05
0.00298502
-1.85583e-05
-8.55876e-06
0.00325376
-0.000195963
-0.00328338
0.00322496
-0.000193846
0.00319747
-0.000189156
0.00317157
-0.00018275
0.00314749
-0.00017471
0.00312537
-0.000165333
0.00310527
-0.000154936
0.00308718
-0.000143802
0.00307105
-0.000132178
0.00305682
-0.000120271
0.00304437
-0.000108247
0.0030336
-9.62346e-05
0.00302441
-8.43245e-05
0.00301667
-7.25766e-05
0.0030103
-6.10228e-05
0.00300521
-4.96719e-05
0.00300132
-3.85145e-05
0.00299857
-2.75424e-05
0.0029969
-1.68867e-05
-7.79528e-06
0.00325594
-0.000168749
-0.00328316
0.00322935
-0.000167249
0.00320379
-0.000163602
0.00317954
-0.000158494
0.00315679
-0.000151961
0.00313569
-0.000144237
0.00311633
-0.000135578
0.00309874
-0.000126213
0.00308291
-0.000116349
0.0030688
-0.000106163
0.00305636
-9.57995e-05
0.0030455
-8.53744e-05
0.00303615
-7.49732e-05
0.00302822
-6.46551e-05
0.00302166
-5.44558e-05
0.00301638
-4.43911e-05
0.00301232
-3.44609e-05
0.00300945
-2.46663e-05
0.00300769
-1.51341e-05
-6.99192e-06
0.00325745
-0.000143563
-0.00328264
0.00323273
-0.000142525
0.00320884
-0.000139712
0.00318601
-0.000135666
0.00316444
-0.000130394
0.00314429
-0.00012408
0.00312564
-0.00011693
0.00310856
-0.000109131
0.00309306
-0.000100851
0.00307914
-9.22397e-05
0.00306676
-8.34218e-05
0.00305588
-7.44979e-05
0.00304645
-6.55456e-05
0.00303842
-5.66206e-05
0.00303172
-4.77594e-05
0.00302631
-3.89812e-05
0.00302214
-3.02923e-05
0.00301918
-2.16999e-05
0.00301737
-1.33222e-05
-6.15907e-06
0.00325847
-0.000120053
-0.00328198
0.00323532
-0.000119375
0.00321284
-0.000117235
0.00319124
-0.000114066
0.0031707
-0.00010986
0.00315139
-0.000104762
0.00313339
-9.89366e-05
0.0031168
-9.25335e-05
0.00310163
-8.56906e-05
0.00308793
-7.85301e-05
0.00307566
-7.11565e-05
0.00306482
-6.3656e-05
0.00305537
-5.60961e-05
0.00304728
-4.85273e-05
0.0030405
-4.09841e-05
0.00303501
-3.34869e-05
0.00303076
-2.60453e-05
0.00302773
-1.86703e-05
0.00302588
-1.14683e-05
-5.30502e-06
0.0032591
-9.79575e-05
-0.0032812
0.00323726
-9.7539e-05
0.00321597
-9.59433e-05
0.00319541
-9.35046e-05
0.00317576
-9.02091e-05
0.00315717
-8.61727e-05
0.00313976
-8.15235e-05
0.0031236
-7.63803e-05
0.00310877
-7.08525e-05
0.00309527
-6.50384e-05
0.00308314
-5.90233e-05
0.00307236
-5.28782e-05
0.00306293
-4.66601e-05
0.00305481
-4.04124e-05
0.00304799
-3.41661e-05
0.00304245
-2.79409e-05
0.00303815
-2.17476e-05
0.00303508
-1.55984e-05
0.0030332
-9.58553e-06
-4.43623e-06
0.00325947
-7.69326e-05
-0.0032805
0.0032387
-7.67704e-05
0.00321838
-7.56229e-05
0.00319868
-7.37997e-05
0.00317976
-7.1294e-05
0.00316179
-6.81968e-05
0.00314487
-6.46068e-05
0.00312911
-6.06145e-05
0.00311456
-5.63041e-05
0.00310127
-5.17517e-05
0.00308927
-4.70239e-05
0.00307857
-4.21771e-05
0.00306917
-3.7257e-05
0.00306105
-3.22993e-05
0.00305422
-2.733e-05
0.00304864
-2.23663e-05
0.00304431
-1.74189e-05
0.00304122
-1.24994e-05
0.00303931
-7.68392e-06
-3.55761e-06
0.00325959
-5.70067e-05
-0.00327952
0.00323972
-5.6896e-05
0.00322018
-5.609e-05
0.00320116
-5.47802e-05
0.00318284
-5.29668e-05
0.00316535
-5.07148e-05
0.00314884
-4.80941e-05
0.0031334
-4.51692e-05
0.00311909
-4.20004e-05
0.00310598
-3.86432e-05
0.00309411
-3.51465e-05
0.00308348
-3.15521e-05
0.00307412
-2.78943e-05
0.00306602
-2.42003e-05
0.00305918
-2.04903e-05
0.00305359
-1.67781e-05
0.00304925
-1.30727e-05
0.00304613
-9.384e-06
0.00304422
-5.77055e-06
-2.6728e-06
0.00325967
-3.74607e-05
-0.00327922
0.00324044
-3.76613e-05
0.00322148
-3.7133e-05
0.00320297
-3.62664e-05
0.00318508
-3.50771e-05
0.00316796
-3.36036e-05
0.00315176
-3.1888e-05
0.00313656
-2.99699e-05
0.00312245
-2.78876e-05
0.00310948
-2.56767e-05
0.0030977
-2.33693e-05
0.00308714
-2.09927e-05
0.00307782
-1.857e-05
0.00306974
-1.61194e-05
0.0030629
-1.36545e-05
0.00305731
-1.11852e-05
0.00305296
-8.71776e-06
0.00304983
-6.25946e-06
0.00304791
-3.8504e-06
-1.78454e-06
0.00325944
-1.94617e-05
-0.00327744
0.00324086
-1.90804e-05
0.00322234
-1.86079e-05
0.00320417
-1.8095e-05
0.00318657
-1.74777e-05
0.0031697
-1.67404e-05
0.0031537
-1.58896e-05
0.00313867
-1.49396e-05
0.00312469
-1.39076e-05
0.00311183
-1.28106e-05
0.00310012
-1.16643e-05
0.00308961
-1.04823e-05
0.00308032
-9.27597e-06
0.00307225
-8.05449e-06
0.00306542
-6.82486e-06
0.00305983
-5.59203e-06
0.00305547
-4.3591e-06
0.00305234
-3.12992e-06
0.00305042
-1.92709e-06
-8.96127e-07
0.00326062
-0.00328008
0.00324154
0.00322293
0.00320484
0.00318736
0.00317062
0.00315473
0.00313979
0.00312588
0.00311307
0.00310141
0.00309092
0.00308165
0.00307359
0.00306677
0.00306118
0.00305682
0.00305369
0.00305176
0.00301039
0.000102548
-0.00300851
0.00301585
0.000305029
0.0030254
0.000504653
0.00303956
0.000699915
0.00305871
0.000889781
0.00308284
0.00107389
0.003111
0.00125282
0.00313951
0.00142761
0.0031502
0.00161071
0.00172884
0.00295162
9.92871e-05
-0.00294836
0.00296082
0.000295834
0.00297566
0.000489816
0.00299578
0.000679788
0.00302099
0.00086457
0.0030516
0.00104328
0.00308915
0.00121526
0.003137
0.00137977
0.0031987
0.00154901
0.00164047
0.0029155
9.57443e-05
-0.00291196
0.00292587
0.000285469
0.00294303
0.000472647
0.00296701
0.000655818
0.00299776
0.000833811
0.00303522
0.00100582
0.00307932
0.00117116
0.00313047
0.00132862
0.00318801
0.00149147
0.00156687
0.00288193
9.16832e-05
-0.00287787
0.00289385
0.000273549
0.00291354
0.000452951
0.00294092
0.00062844
0.00297593
0.000798803
0.00301863
0.000963128
0.00306927
0.00112052
0.00312802
0.00126986
0.00319516
0.00142433
0.00149636
0.00285445
8.72665e-05
-0.00285003
0.00286752
0.000260481
0.00288918
0.000431289
0.00291935
0.000598269
0.00295792
0.000760229
0.00300478
0.000916274
0.00305981
0.00106549
0.00312279
0.00120688
0.00319491
0.00135221
0.00142394
0.00283009
8.25299e-05
-0.00282535
0.00284415
0.000246428
0.00286744
0.000407991
0.00289989
0.000565826
0.00294136
0.000718757
0.00299175
0.000865887
0.00305093
0.00100631
0.00311849
0.00113933
0.00319602
0.00127468
0.00134678
0.00280916
7.75276e-05
-0.00280416
0.00282404
0.000231549
0.00284871
0.000383319
0.00288306
0.000531484
0.00292691
0.0006749
0.00298012
0.000812682
0.00304248
0.000943945
0.00311355
0.00106825
0.0031951
0.00119314
0.00126468
0.00279097
7.22981e-05
-0.00278574
0.00280654
0.000215974
0.00283237
0.000357494
0.0028683
0.000495556
0.00291415
0.000629048
0.00296973
0.000757099
0.00303482
0.000878858
0.00310897
0.000994103
0.0031938
0.0011083
0.00117814
0.00277528
6.6874e-05
-0.00276986
0.00279145
0.000199803
0.00281826
0.000330687
0.00285553
0.000458285
0.00290305
0.000581526
0.0029606
0.000699554
0.0030279
0.000811562
0.00310454
0.000917455
0.00319192
0.00102092
0.00108787
0.00276179
6.1282e-05
-0.00275619
0.00277847
0.00018312
0.00280612
0.000303041
0.00284453
0.00041987
0.00289347
0.000532587
0.00295266
0.00064036
0.0030218
0.000742423
0.00310051
0.000838742
0.00318988
0.00093156
0.000994614
0.00275025
5.5545e-05
-0.00274451
0.00276738
0.000165997
0.00279574
0.000274672
0.00283514
0.000380475
0.00288528
0.000482445
0.00294586
0.000579779
0.00301652
0.000671761
0.00309691
0.000758354
0.00318779
0.000840684
0.000899025
0.00274047
4.96825e-05
-0.00273461
0.00275797
0.000148491
0.00278697
0.00024568
0.0028272
0.000340239
0.00287837
0.000431275
0.00294012
0.000518027
0.00301205
0.000599833
0.00309379
0.000676613
0.0031858
0.00074868
0.000801666
0.00273227
4.37117e-05
-0.0027263
0.0027501
0.000130658
0.00277963
0.000216151
0.00282059
0.000299279
0.00287264
0.000379227
0.00293537
0.000455289
0.00300835
0.000526857
0.00309117
0.000593794
0.00318398
0.000655867
0.000703008
0.00272549
3.76483e-05
-0.00271943
0.0027436
0.000112543
0.00277359
0.000186163
0.00281517
0.000257703
0.00286796
0.000326436
0.00293153
0.000391723
0.00300537
0.000453017
0.00308903
0.000510126
0.0031824
0.000562501
0.000603431
0.00272003
3.15066e-05
-0.00271389
0.00273838
9.419e-05
0.00276876
0.000155788
0.00281085
0.00021561
0.00286426
0.000273028
0.0029285
0.000327481
0.00300302
0.000378491
0.00308733
0.000425825
0.00318102
0.000468807
0.000503255
0.00271573
2.53009e-05
-0.00270952
0.00273428
7.5641e-05
0.00276497
0.000125094
0.00280749
0.000173092
0.00286141
0.000219113
0.0029262
0.000262688
0.00300128
0.000303413
0.00308605
0.000341048
0.00317993
0.000374928
0.000402688
0.00271265
1.90431e-05
-0.00270639
0.00273136
5.69355e-05
0.0027623
9.41514e-05
0.00280514
0.000130255
0.00285941
0.000164842
0.00292456
0.000197539
0.00299995
0.000228021
0.00308494
0.000256056
0.00317879
0.00028108
0.000301962
0.00271025
1.27425e-05
-0.00270395
0.00272909
3.80965e-05
0.00276026
6.29896e-05
0.00280339
8.71247e-05
0.002858
0.000110222
0.00292352
0.000132021
0.00299926
0.000152287
0.00308448
0.000170831
0.00317832
0.000187237
0.000201068
0.00270939
6.41382e-06
-0.00270306
0.0027283
1.9184e-05
0.00275956
3.17312e-05
0.00280277
4.39102e-05
0.00285742
5.55784e-05
0.00292285
6.65914e-05
0.00299834
7.67971e-05
0.00308315
8.60176e-05
0.00317651
9.38783e-05
0.000100135
0.00270626
-0.00269984
0.00272544
0.00275717
0.00280108
0.00285666
0.00292325
0.00300005
0.00308607
0.00317995
0.00163105
0.00234819
-0.00222298
-0.00175626
0.00148732
0.00242169
-0.00227796
0.00133029
0.00248828
-0.00233124
0.0011581
0.00256172
-0.00238954
0.000973605
0.00265099
-0.00246649
0.000778699
0.00276182
-0.00256691
0.000573436
0.0028955
-0.00269023
0.000358684
0.00302785
-0.0028131
0.000146537
0.00299626
-0.00278411
0.00207828
-0.00193174
0.00147273
0.00249619
-0.00162073
0.0013365
0.00255792
0.00119431
0.00263047
0.00104147
0.00271456
0.000877764
0.00281469
0.000703633
0.00293595
0.000518997
0.00308013
0.000324913
0.00322193
0.000132736
0.00318844
0.00221102
0.00132648
0.00262492
-0.00145521
0.00119818
0.00268623
0.00106639
0.00276225
0.000928067
0.00285288
0.000781824
0.00296094
0.000626884
0.00309089
0.000462574
0.00324444
0.000289642
0.00339486
0.000118281
0.0033598
0.0023293
0.00116758
0.00273747
-0.00128014
0.00105304
0.00280077
0.000935319
0.00287998
0.000812755
0.00297545
0.000684097
0.00308959
0.000548309
0.00322668
0.00040451
0.00338824
0.000253212
0.00354616
0.000103329
0.00350968
0.00243263
0.00100051
0.00283394
-0.00109698
0.000901703
0.00289958
0.000799995
0.00298168
0.000694419
0.00308102
0.000584011
0.0032
0.000467805
0.00334289
0.000344942
0.00351111
0.000215787
0.00367532
8.79574e-05
0.00363751
0.00252058
0.000827437
0.00291412
-0.000907623
0.00074522
0.0029818
0.000660616
0.00306629
0.000572955
0.00316868
0.000481492
0.00329147
0.000385419
0.00343896
0.00028399
0.00361253
0.000177488
0.00378182
7.22243e-05
0.00374278
0.00259281
0.000649188
0.00297747
-0.000712532
0.000584304
0.00304668
0.000517612
0.00313298
0.000448607
0.00323769
0.000376722
0.00336335
0.000301323
0.00351436
0.000221817
0.00369204
0.000138437
0.0038652
5.61872e-05
0.00382503
0.00264899
0.000466623
0.0030233
-0.00051245
0.00041974
0.00309356
0.000371601
0.00318112
0.000321842
0.00328745
0.000270061
0.00341513
0.0002158
0.00356862
0.000158638
0.0037492
9.87852e-05
0.00392505
3.99274e-05
0.00388388
0.00268892
0.000280834
0.00305105
-0.000308588
0.000252467
0.00312193
0.000223356
0.00321023
0.000193276
0.00331753
0.000161987
0.00344642
0.000129212
0.00360139
9.47112e-05
0.0037837
5.87008e-05
0.00396106
2.36773e-05
0.00391891
0.0027126
9.30916e-05
-0.000102437
8.3554e-05
7.37553e-05
6.36146e-05
5.30526e-05
4.19751e-05
3.03152e-05
1.82334e-05
6.90955e-06
0.00236945
0.000223162
-0.00259261
0.00213825
0.000231195
0.0018983
0.000239948
0.00164832
0.00024998
0.00138671
0.000261613
0.00111158
0.000275132
0.000820964
0.000290612
0.000515283
0.000305681
0.000211273
0.00030401
0.000211273
0.0023608
0.000446133
-0.00258377
0.00213007
0.000461927
0.00189076
0.000479261
0.00164151
0.000499221
0.00138075
0.000522379
0.00110659
0.000549293
0.000817075
0.000580124
0.000512711
0.000610044
0.00021051
0.000606211
0.000421784
0.00234314
0.000668611
-0.00256562
0.00211347
0.000691597
0.00187552
0.000717208
0.00162784
0.0007469
0.00136886
0.000781362
0.00109675
0.000821402
0.000809607
0.000867267
0.000507917
0.000911734
0.000208393
0.000905736
0.000630177
0.00231529
0.000888496
-0.00253517
0.00208794
0.00091894
0.00185231
0.000952843
0.00160705
0.000992157
0.00135077
0.00103764
0.00108176
0.00109041
0.000798203
0.00115083
0.000500564
0.00120937
0.000205273
0.00120103
0.00083545
0.0022792
0.0011068
-0.00249751
0.00205425
0.0011439
0.00182128
0.00118581
0.00157902
0.00123442
0.00132623
0.00129043
0.00106136
0.00135528
0.000782642
0.00142954
0.000490526
0.00150149
0.000201044
0.00149051
0.00103649
0.00223238
0.00131875
-0.00244432
0.00201155
0.00136472
0.001782
0.00141536
0.0015433
0.00147312
0.00129476
0.00153897
0.00103508
0.00161496
0.000762571
0.00170206
0.000477583
0.00178648
0.000195607
0.00177248
0.0012321
0.00218445
0.00153249
-0.00239819
0.00196361
0.00158555
0.0017353
0.00164367
0.00149949
0.00170892
0.00125562
0.00178285
0.00100224
0.00186834
0.00073748
0.00196682
0.000461434
0.00206253
0.000188844
0.00204507
0.00142095
0.00212373
0.00173462
-0.00232585
0.00190498
0.0018043
0.00167789
0.00187076
0.00144523
0.00194158
0.00120706
0.00202102
0.000961649
0.00211375
0.000706642
0.00222182
0.000441696
0.00232747
0.000180617
0.00230615
0.00160156
0.00209047
0.00196582
-0.00232166
0.0018479
0.00204687
0.00161028
0.00210838
0.00137797
0.00217389
0.00114674
0.00225225
0.000911786
0.0023487
0.000669238
0.00246437
0.000417997
0.00257872
0.000170805
0.00255334
0.00177237
0.00195245
-0.00220961
0.00172136
0.00149849
0.00128284
0.0010686
0.000850387
0.000624525
0.000390145
0.000159373
0.00301253
-1.30046e-05
0.00302402
-1.14892e-05
0.00303364
-9.61727e-06
0.00304134
-7.70379e-06
0.00304712
-5.78135e-06
0.00305096
-3.84271e-06
0.00305294
-1.97114e-06
0.00305213
8.09079e-07
0.00304729
4.83302e-06
0.00303809
9.20571e-06
0.00302439
1.36976e-05
0.00300584
1.85459e-05
0.00298195
2.38922e-05
0.00295208
2.98711e-05
0.00291546
3.66202e-05
0.00287118
4.42787e-05
0.0028182
5.29841e-05
0.00275525
6.29535e-05
0.00268049
7.47535e-05
8.78887e-05
0.00301519
-2.52212e-05
0.00302595
-2.2247e-05
0.00303486
-1.85288e-05
0.00304187
-1.4713e-05
0.00304695
-1.08623e-05
0.00305005
-6.944e-06
0.00305127
-3.19122e-06
0.00304962
2.4643e-06
0.00304364
1.08138e-05
0.00303367
1.91762e-05
0.00301941
2.79582e-05
0.00300044
3.75117e-05
0.00297624
4.80931e-05
0.00294616
5.99565e-05
0.00290941
7.33694e-05
0.00286506
8.86253e-05
0.00281202
0.000106028
0.00274901
0.000125956
0.00267394
0.000149824
0.000178058
0.00301859
-3.5718e-05
0.00302752
-3.11778e-05
0.00303469
-2.56995e-05
0.00304015
-2.01704e-05
0.00304396
-1.46711e-05
0.00304614
-9.11933e-06
0.00304599
-3.04422e-06
0.00304315
5.29986e-06
0.00303619
1.77797e-05
0.00302526
3.01051e-05
0.00301015
4.30676e-05
0.00299046
5.72009e-05
0.00296565
7.29028e-05
0.00293505
9.05593e-05
0.00289784
0.00011058
0.00285302
0.000133439
0.00279939
0.000159665
0.00273567
0.000189676
0.00265982
0.000225667
0.000272267
0.00302623
-4.38324e-05
0.00303304
-3.79848e-05
0.0030382
-3.08652e-05
0.00304166
-2.36255e-05
0.00304336
-1.63711e-05
0.00304334
-9.09736e-06
0.00304087
-5.82758e-07
0.00303395
1.22254e-05
0.00302403
2.77009e-05
0.00301081
4.332e-05
0.00299376
6.01184e-05
0.00297235
7.86171e-05
0.00294596
9.92853e-05
0.00291391
0.000122608
0.00287537
0.00014912