/*--------------------------------*- C++ -*----------------------------------*\
| =========                 |                                                 |
| \\      /  F ield         | OpenFOAM: The Open Source CFD Toolbox           |
|  \\    /   O peration     | Version:  4.1                                   |
|   \\  /    A nd           | Web:      www.OpenFOAM.org                      |
|    \\/     M anipulation  |                                                 |
\*---------------------------------------------------------------------------*/
FoamFile
{
    version     2.0;
    format      ascii;
    class       volVectorField;
    location    "0.2";
    object      U;
}
// * * * * * * * * * * * * * * * * * * * * * * * * * * * * * * * * * * * * * //

dimensions      [0 1 -1 0 0 0 0];

internalField   nonuniform List<vector> 
2000
(
(0.0304364 -0.0256928 -3.90427e-20)
(0.0461765 -0.0351132 0)
(0.0494643 -0.0326678 -6.66937e-20)
(0.049839 -0.0285554 -3.10009e-20)
(0.0497246 -0.0248876 5.73718e-20)
(0.0496002 -0.0218988 7.89929e-20)
(0.0495357 -0.0195224 -2.40552e-20)
(0.0494927 -0.0176655 0)
(0.0491152 -0.0164342 2.17663e-20)
(0.0480881 -0.0159564 0)
(0.0344665 -0.0250846 1.90671e-20)
(0.0516603 -0.0342866 -1.86718e-20)
(0.0545391 -0.0319171 6.9364e-20)
(0.0542367 -0.0279226 9.61379e-20)
(0.0534949 -0.024359 1.45637e-21)
(0.0528131 -0.021443 -2.60206e-20)
(0.0522382 -0.019077 2.71848e-20)
(0.0517433 -0.0171263 2.46337e-20)
(0.0510329 -0.0157701 -2.17663e-20)
(0.0498029 -0.0153248 -4.18207e-20)
(0.038343 -0.0238462 -2.09244e-20)
(0.05693 -0.0325948 1.96005e-20)
(0.0594144 -0.0303526 -3.54094e-20)
(0.0584649 -0.0265629 1.61835e-21)
(0.057134 -0.023175 -3.04253e-20)
(0.0559519 -0.0203875 -2.82988e-20)
(0.0549557 -0.0180964 -2.63771e-20)
(0.0541239 -0.0161674 -2.46337e-20)
(0.0532398 -0.0148092 -2.43832e-20)
(0.0520326 -0.0144131 2.29104e-20)
(0.041972 -0.0220112 -1.0714e-23)
(0.0618592 -0.030085 2.0539e-20)
(0.0639757 -0.0280211 0)
(0.0624259 -0.0245259 -3.34337e-20)
(0.0605541 -0.0213953 3.28558e-20)
(0.0589211 -0.0188108 0)
(0.0575532 -0.0166744 0)
(0.0564194 -0.0148655 0)
(0.0553458 -0.0135965 2.43832e-20)
(0.0541174 -0.0132456 -4.56985e-20)
(0.0452662 -0.0196277 -4.64838e-20)
(0.0663291 -0.0268247 -5.21362e-22)
(0.068113 -0.0249879 -2.0397e-20)
(0.0660229 -0.021872 -1.71656e-20)
(0.0636668 -0.0190771 -1.76385e-20)
(0.0616321 -0.0167647 -1.64768e-20)
(0.0599334 -0.0148474 0)
(0.0585253 -0.0132199 -1.44921e-20)
(0.057265 -0.0120811 6.64432e-20)
(0.0559848 -0.0117677 -8.73499e-20)
(0.0481465 -0.0167567 7.16267e-20)
(0.0702323 -0.0228989 -4.99358e-22)
(0.0717259 -0.0213335 4.12472e-20)
(0.0691667 -0.0186737 -3.83497e-20)
(0.0663916 -0.0162851 5.36969e-20)
(0.0640101 -0.0143059 -1.73771e-20)
(0.0620255 -0.0126618 0)
(0.0603782 -0.0112643 1.44921e-20)
(0.0589531 -0.010288 -1.36353e-20)
(0.0576245 -0.0100172 -5.35963e-20)
(0.0505437 -0.0134702 0)
(0.0734749 -0.0184074 0)
(0.0747266 -0.0171518 2.18422e-20)
(0.0717793 -0.0150139 -2.03357e-20)
(0.0686584 -0.0130919 1.8925e-20)
(0.0659911 -0.0114978 -1.7768e-20)
(0.0637706 -0.010172 -3.32324e-20)
(0.0619254 -0.00904373 3.14117e-20)
(0.0603641 -0.00825683 2.94939e-20)
(0.0589962 -0.00803617 -1.44307e-20)
(0.0524002 -0.0098496 -1.34568e-20)
(0.0759791 -0.0134624 0)
(0.0770421 -0.0125481 1.11675e-20)
(0.0737958 -0.0109851 -4.25372e-20)
(0.0704092 -0.00957823 3.00394e-20)
(0.0675227 -0.00841052 0)
(0.065121 -0.00743846 0)
(0.0631237 -0.00661076 0)
(0.0614582 -0.00603452 3.10998e-20)
(0.0600607 -0.00587049 -2.9558e-20)
(0.0536719 -0.00598378 6.5789e-21)
(0.0776843 -0.00818611 -1.41726e-22)
(0.0786161 -0.0076364 1.16904e-20)
(0.0751661 -0.00668742 -5.68267e-21)
(0.0715995 -0.00583098 -5.08736e-21)
(0.0685647 -0.00511972 -9.75225e-21)
(0.0660404 -0.00452725 0)
(0.0639399 -0.00402281 4.43258e-21)
(0.0622042 -0.00367239 2.05639e-20)
(0.0607868 -0.00356912 -1.55545e-20)
(0.0543297 -0.00196618 0)
(0.078548 -0.00270717 6.58454e-21)
(0.0794101 -0.00253803 0)
(0.0758564 -0.00222667 2.77994e-21)
(0.0721992 -0.00194213 2.59812e-21)
(0.0690899 -0.0017055 5.09733e-21)
(0.066504 -0.00150823 0)
(0.0643518 -0.00134079 -4.43259e-21)
(0.0625811 -0.00122496 -4.19724e-21)
(0.0611533 -0.00118466 -4.08349e-21)
(0.00259537 -0.00198513 0)
(0.00800812 -0.00271787 3.39992e-21)
(0.0137592 -0.00252054 0)
(0.018407 -0.00219028 4.26994e-21)
(0.0220954 -0.00189043 1.30109e-21)
(0.0250705 -0.00163754 -2.35904e-21)
(0.0274946 -0.00142509 2.2216e-21)
(0.0294855 -0.00124563 -2.01336e-21)
(0.0311312 -0.00109267 -4.16411e-23)
(0.0324968 -0.000958471 -1.71151e-21)
(0.0032182 -0.00591524 1.08808e-20)
(0.00886928 -0.00809032 -6.75841e-21)
(0.0145731 -0.00750503 6.25749e-21)
(0.0191253 -0.00652228 -2.84314e-21)
(0.0227282 -0.00562902 -1.30454e-20)
(0.0256328 -0.00487557 4.85501e-21)
(0.0279983 -0.00424266 0)
(0.0299418 -0.00370794 2.00665e-21)
(0.0315611 -0.00325136 1.83758e-21)
(0.0328902 -0.00285318 0)
(0.00445698 -0.00971152 -7.26813e-21)
(0.0105765 -0.0132728 0)
(0.0161805 -0.0123146 -1.87628e-20)
(0.0205466 -0.0107023 2.30933e-20)
(0.0239818 -0.00923568 -5.44098e-21)
(0.0267473 -0.00799839 0)
(0.0289967 -0.00695897 0)
(0.0308454 -0.00608059 0)
(0.0324107 -0.00532807 -1.47363e-20)
(0.0336806 -0.00467944 1.40058e-20)
(0.00628272 -0.0132787 0)
(0.0130905 -0.0181437 1.39041e-20)
(0.0185445 -0.0168332 -2.56229e-20)
(0.0226376 -0.0146285 1.18631e-20)
(0.0258267 -0.0126226 -1.0698e-20)
(0.0283883 -0.0109294 2.96543e-20)
(0.0304671 -0.00950603 -5.00546e-22)
(0.0321732 -0.00830167 -1.69913e-20)
(0.0336497 -0.00726183 -1.51032e-20)
(0.0348388 -0.00636937 2.15216e-20)
(0.00865379 -0.0165338 -1.50321e-20)
(0.0163534 -0.0225883 2.87854e-20)
(0.0216106 -0.0209553 2.77841e-22)
(0.0253497 -0.0182102 -1.02079e-22)
(0.0282211 -0.015712 -1.06914e-20)
(0.0305206 -0.013601 3.09838e-20)
(0.0323818 -0.0118238 0)
(0.0339055 -0.0103165 8.77367e-21)
(0.03527 -0.00899921 -8.0753e-21)
(0.0363971 -0.0078652 2.8838e-20)
(0.0115159 -0.0193984 2.25423e-22)
(0.0202889 -0.0264986 -2.9198e-20)
(0.0253061 -0.0245826 -1.33338e-20)
(0.0286181 -0.0213639 -1.30577e-20)
(0.0311087 -0.0184337 -1.12701e-20)
(0.0330971 -0.0159539 -1.03649e-20)
(0.0347012 -0.0138604 0)
(0.0360048 -0.0120765 -8.77368e-21)
(0.0372152 -0.0104891 -2.43151e-20)
(0.0382494 -0.00909288 7.86896e-21)
(0.014802 -0.0218003 6.15248e-24)
(0.0248023 -0.0297773 -1.51904e-20)
(0.02954 -0.0276276 0)
(0.0323616 -0.0240172 2.46204e-20)
(0.03442 -0.02073 -2.39001e-20)
(0.0360621 -0.017943 0)
(0.0373906 -0.0155799 0)
(0.0384693 -0.0135499 0)
(0.0395442 -0.011693 1.75752e-20)
(0.0405929 -0.00998863 3.03532e-20)
(0.0184322 -0.0236765 1.68212e-20)
(0.0297814 -0.03234 -1.57569e-20)
(0.0342036 -0.0300154 -2.9636e-20)
(0.0364814 -0.0261106 -1.06881e-21)
(0.038066 -0.0225582 -2.52117e-20)
(0.0393373 -0.0195433 -2.32883e-20)
(0.0403816 -0.0169744 -2.15307e-20)
(0.041229 -0.0147389 -1.99219e-20)
(0.0421168 -0.0126028 -1.75752e-20)
(0.043029 -0.0104676 1.62473e-20)
(0.0223157 -0.0249745 5.32514e-20)
(0.0350977 -0.0341165 1.6327e-20)
(0.0391714 -0.0316842 6.03168e-20)
(0.0408601 -0.0275968 2.78168e-20)
(0.0419385 -0.0238907 -1.14e-21)
(0.0428337 -0.0207576 2.25012e-20)
(0.0436421 -0.0180921 -2.32873e-20)
(0.0444005 -0.0157443 1.99219e-20)
(0.0453875 -0.0133332 -1.94439e-20)
(0.0467078 -0.0105681 3.44374e-20)
(0.0263519 -0.0256546 -3.57478e-20)
(0.0406104 -0.0350529 0)
(0.0443036 -0.0325829 -3.08996e-20)
(0.0453558 -0.0284316 4.6828e-22)
(0.0458728 -0.0246983 -7.5352e-22)
(0.0463245 -0.0215959 -2.51443e-20)
(0.0468189 -0.0190364 6.92507e-20)
(0.0473891 -0.0168599 0)
(0.0481637 -0.0145883 1.9444e-20)
(0.0490828 -0.0114713 0)
(0.0336698 -0.000861609 0)
(0.0348958 -0.00075105 1.47497e-21)
(0.0359721 -0.000649301 -2.8905e-21)
(0.0369032 -0.000564805 1.2423e-21)
(0.0377216 -0.000493013 0)
(0.0384422 -0.000431336 -1.19431e-21)
(0.0390756 -0.000378267 1.20023e-21)
(0.0396314 -0.00033241 0)
(0.0401178 -0.000292497 0)
(0.0405414 -0.000257387 -1.16036e-22)
(0.0409068 -0.000225961 0)
(0.0412163 -0.000196814 0)
(0.0414715 -0.000168204 0)
(0.0416827 -0.000140873 0)
(0.0418646 -0.000114968 1.14064e-22)
(0.0420231 -9.05302e-05 -1.14654e-22)
(0.0421568 -6.77253e-05 0)
(0.0422653 -4.66534e-05 2.32396e-23)
(0.0423502 -2.77204e-05 -2.33619e-23)
(0.0424123 -1.32935e-05 0)
(0.0338232 -0.00258341 0)
(0.0350696 -0.00222765 -3.83749e-22)
(0.0361352 -0.00191326 0)
(0.0370423 -0.00165405 -5.21603e-21)
(0.0378421 -0.0014318 5.08187e-21)
(0.0385475 -0.00123973 -3.1262e-22)
(0.0391681 -0.00107367 2.2478e-21)
(0.0397136 -0.000929598 -4.62365e-21)
(0.0401919 -0.000803955 3.77906e-21)
(0.0406096 -0.000693606 -2.05896e-21)
(0.040972 -0.000595764 -1.6033e-21)
(0.0412823 -0.000507788 2.85381e-21)
(0.0415389 -0.000427133 -1.44147e-21)
(0.0417491 -0.000353154 -6.93414e-22)
(0.041929 -0.000284781 5.47516e-22)
(0.0420846 -0.000223432 -1.04057e-22)
(0.042215 -0.000167882 -8.14025e-23)
(0.0423198 -0.000116734 -9.29552e-23)
(0.042401 -7.01641e-05 9.34054e-23)
(0.0424596 -3.43827e-05 -1.2038e-23)
(0.0341702 -0.00430918 4.09637e-22)
(0.0354604 -0.00366702 3.84415e-22)
(0.036485 -0.00314826 3.74872e-22)
(0.0373425 -0.00272982 0)
(0.0381058 -0.00237188 5.8473e-21)
(0.0387801 -0.00206492 -4.56767e-21)
(0.0393739 -0.00180095 0)
(0.0398966 -0.0015725 5.52065e-22)
(0.040356 -0.00137341 2.53265e-22)
(0.0407581 -0.00119846 -3.1063e-21)
(0.0411073 -0.00104301 3.52375e-22)
(0.0414062 -0.000902567 3.6363e-21)
(0.0416535 -0.00077205 1.72521e-22)
(0.0418564 -0.00064297 1.47545e-22)
(0.0420271 -0.000521738 1.27876e-22)
(0.0421727 -0.000410615 -2.66403e-22)
(0.042297 -0.000307943 2.55444e-22)
(0.0423988 -0.000212981 2.79742e-22)
(0.0424779 -0.000126897 5.90085e-23)
(0.0425333 -6.04782e-05 9.24257e-26)
(0.0347124 -0.00599054 1.26054e-20)
(0.0360537 -0.00498475 -6.21159e-22)
(0.0369706 -0.00425411 -1.00955e-21)
(0.0377468 -0.00365886 -1.18784e-20)
(0.0384532 -0.00314614 -1.03154e-21)
(0.0390807 -0.002709 -3.1818e-22)
(0.0396371 -0.00233545 8.69861e-21)
(0.0401307 -0.00201481 -5.29273e-21)
(0.0405674 -0.00173819 -4.3356e-21)
(0.0409527 -0.00149785 3.89031e-21)
(0.0412915 -0.00128692 -3.58168e-22)
(0.0415888 -0.0010991 -3.89321e-21)
(0.0418481 -0.000927974 -1.71084e-22)
(0.0420596 -0.000766251 -1.41836e-21)
(0.0422248 -0.000616536 9.90026e-22)
(0.0423624 -0.000482557 7.4808e-22)
(0.0424773 -0.000361407 -6.65269e-22)
(0.0425681 -0.000250577 0)
(0.0426356 -0.000149796 -1.06783e-22)
(0.0426802 -7.16613e-05 -1.1916e-23)
(0.035549 -0.00762562 -2.82308e-20)
(0.0369583 -0.00623097 1.20441e-20)
(0.0376962 -0.00536441 -1.29074e-20)
(0.0383677 -0.00464266 0)
(0.0389888 -0.00402362 6.93733e-22)
(0.0395398 -0.00349789 1.02351e-20)
(0.0400318 -0.00304614 -9.52448e-23)
(0.0404716 -0.00265511 -7.13296e-22)
(0.0408642 -0.00231459 -8.8616e-21)
(0.0412136 -0.002016 -4.80688e-22)
(0.0415229 -0.00175198 0)
(0.0417947 -0.00151596 3.91847e-22)
(0.0420318 -0.0013006 0)
(0.0422287 -0.00109736 3.01363e-22)
(0.042379 -0.00089609 0)
(0.0424977 -0.000705582 0)
(0.0426004 -0.000528851 -1.63476e-22)
(0.0426863 -0.000365224 1.89522e-22)
(0.0427524 -0.00021628 -1.66924e-22)
(0.0427935 -9.98837e-05 4.8268e-23)
(0.0365428 -0.0091001 0)
(0.0379757 -0.00718363 8.46926e-22)
(0.0384376 -0.00613729 2.55248e-20)
(0.0389881 -0.00520233 -2.4732e-20)
(0.0395157 -0.00441278 7.45377e-22)
(0.0399964 -0.00375437 0)
(0.0404366 -0.00320076 9.88028e-21)
(0.040836 -0.00273381 -1.84165e-20)
(0.0411963 -0.00233778 9.69928e-21)
(0.0415202 -0.00199944 5.10222e-22)
(0.0418109 -0.00170778 4.62325e-22)
(0.0420733 -0.00145321 4.14204e-22)
(0.0423156 -0.00122695 0)
(0.042533 -0.00102254 -1.99062e-21)
(0.0427013 -0.000829136 4.50065e-21)
(0.0428196 -0.00064556 -1.92406e-21)
(0.0429091 -0.000476253 1.71033e-22)
(0.0429767 -0.000326442 1.22192e-22)
(0.0430216 -0.000192809 -4.81412e-23)
(0.0430442 -8.88008e-05 4.88196e-23)
(0.0380341 -0.0104782 -3.11756e-20)
(0.0395127 -0.00821671 0)
(0.0396215 -0.00723989 8.80506e-22)
(0.0399937 -0.00627323 -1.62388e-21)
(0.0403369 -0.00545244 -1.52592e-21)
(0.0406617 -0.00474219 -7.29602e-22)
(0.0409754 -0.00412128 -6.79144e-22)
(0.0412742 -0.00357906 8.81392e-21)
(0.0415558 -0.00310514 -1.05281e-20)
(0.0418183 -0.00269002 -8.87015e-21)
(0.0420602 -0.00232488 7.36348e-21)
(0.0422811 -0.00200181 -8.35062e-22)
(0.0424828 -0.00171458 2.73416e-21)
(0.0426685 -0.00145928 -7.00577e-22)
(0.0428224 -0.00122454 -2.87316e-21)
(0.0429321 -0.000980468 -2.24509e-22)
(0.0430055 -0.000735876 2.40343e-22)
(0.0430592 -0.000507956 -3.12482e-22)
(0.0431019 -0.000299362 -4.60666e-22)
(0.0431236 -0.000132657 -2.50491e-23)
(0.0393268 -0.0113504 0)
(0.0406826 -0.00837525 2.99757e-20)
(0.0404594 -0.00710439 -3.0728e-20)
(0.0407357 -0.00585043 8.33542e-22)
(0.0410072 -0.00486586 1.59801e-21)
(0.0412824 -0.00406729 7.28982e-22)
(0.0415515 -0.0034112 1.38397e-21)
(0.0418073 -0.00286728 0)
(0.0420484 -0.00241212 5.73533e-22)
(0.0422745 -0.00202864 5.22138e-22)
(0.0424858 -0.00170377 4.91191e-22)
(0.0426828 -0.00142707 8.58083e-22)
(0.0428675 -0.00118986 0)
(0.0430451 -0.000985612 0)
(0.0432257 -0.000809432 2.69042e-22)
(0.0433786 -0.000648898 2.0488e-21)
(0.0434645 -0.000492049 -1.42422e-21)
(0.0435039 -0.00032645 1.2582e-22)
(0.0435202 -0.000180793 2.45981e-22)
(0.0435181 -7.78209e-05 -7.52949e-23)
(0.0419918 -0.0123224 -3.59085e-20)
(0.0431108 -0.0100132 0)
(0.0423055 -0.00912971 0)
(0.0421254 -0.00799733 2.7767e-20)
(0.0420206 -0.00697793 -2.52903e-21)
(0.0420246 -0.00605379 -4.9649e-20)
(0.0420995 -0.00523616 2.31016e-20)
(0.0422161 -0.00452069 0)
(0.0423554 -0.00389609 0)
(0.0425045 -0.00334965 0)
(0.0426554 -0.00286926 -2.29789e-22)
(0.042803 -0.00244424 -6.57694e-22)
(0.0429442 -0.00206563 -5.73869e-21)
(0.0430776 -0.00172686 5.52814e-21)
(0.0432024 -0.0014255 -2.02364e-21)
(0.0433195 -0.00116602 1.78714e-21)
(0.043423 -0.000924926 0)
(0.0434768 -0.000677359 -5.78346e-23)
(0.0434717 -0.000418531 -7.26644e-23)
(0.0434522 -0.000183157 0)
(0.0428027 -0.0102157 5.67956e-22)
(0.0435588 -0.00721875 3.42795e-20)
(0.0433209 -0.0058049 -3.39229e-20)
(0.0432409 -0.00472105 0)
(0.0431562 -0.00386245 -2.7727e-20)
(0.0431048 -0.00315276 5.30757e-20)
(0.0430988 -0.00255634 -2.53721e-20)
(0.0431337 -0.00205545 0)
(0.0432006 -0.00163745 -9.79221e-21)
(0.0432903 -0.00129143 1.85179e-20)
(0.0433946 -0.00100736 -8.98712e-21)
(0.0435071 -0.000776116 2.22732e-22)
(0.0436233 -0.000589499 0)
(0.04374 -0.000440509 5.27695e-21)
(0.0438539 -0.000323786 -7.17191e-21)
(0.0439603 -0.000235934 2.09081e-21)
(0.0440585 -0.00017584 1.24514e-21)
(0.0441468 -0.000138739 -8.84096e-22)
(0.0442059 -9.88795e-05 -4.07804e-22)
(0.0442178 -5.32263e-05 0)
(0.048578 -0.014986 0)
(0.0461641 -0.0141404 0)
(0.045211 -0.0122517 0)
(0.0446774 -0.0105834 0)
(0.0442923 -0.00919743 0)
(0.044034 -0.00801517 0)
(0.0438733 -0.00698333 0)
(0.0437844 -0.00607121 0)
(0.0437484 -0.00525933 0)
(0.0437509 -0.00453351 0)
(0.0437805 -0.00388227 0)
(0.0438281 -0.00329594 0)
(0.0438872 -0.00276632 0)
(0.0439525 -0.00228667 0)
(0.0440196 -0.00185156 0)
(0.0440838 -0.00145595 0)
(0.0441401 -0.0010942 0)
(0.044183 -0.000764766 0)
(0.0442079 -0.000468503 0)
(0.044219 -0.000222063 0)
(0.0504981 -0.0106459 0)
(0.0479041 -0.00991876 0)
(0.0465446 -0.00879806 0)
(0.0457372 -0.00773664 0)
(0.04518 -0.00678619 0)
(0.0447967 -0.00593714 0)
(0.0445348 -0.00517732 0)
(0.0443592 -0.00449684 0)
(0.0442471 -0.00388759 0)
(0.0441819 -0.00334242 0)
(0.0441513 -0.00285467 0)
(0.0441458 -0.00241807 0)
(0.0441579 -0.00202675 0)
(0.0441819 -0.00167537 0)
(0.0442126 -0.00135913 0)
(0.0442458 -0.0010734 0)
(0.0442773 -0.000813181 0)
(0.0443029 -0.000573103 0)
(0.0443182 -0.000349712 0)
(0.0443251 -0.000162075 0)
(0.050504 -0.0090448 0)
(0.0484983 -0.00878085 0)
(0.0473674 -0.00811633 0)
(0.0465792 -0.00735351 0)
(0.0459774 -0.00659353 0)
(0.045532 -0.00587096 0)
(0.0452052 -0.00519805 0)
(0.0449674 -0.00457781 0)
(0.0447973 -0.00400938 0)
(0.0446791 -0.00349008 0)
(0.0446007 -0.00301635 0)
(0.0445523 -0.00258424 0)
(0.0445264 -0.00218967 0)
(0.0445168 -0.00182862 0)
(0.0445184 -0.00149717 0)
(0.0445265 -0.00119137 0)
(0.0445375 -0.000907141 0)
(0.0445477 -0.000640543 0)
(0.0445539 -0.000390074 0)
(0.0445583 -0.000178775 0)
(0.0505656 -0.00799338 0)
(0.0489141 -0.00776396 0)
(0.047971 -0.00728659 0)
(0.0472438 -0.0067124 0)
(0.0466451 -0.0061063 0)
(0.0461751 -0.00550344 0)
(0.0458112 -0.00492273 0)
(0.0455314 -0.00437347 0)
(0.0453184 -0.00385969 0)
(0.0451586 -0.0033824 0)
(0.0450409 -0.00294084 0)
(0.0449563 -0.00253316 0)
(0.0448974 -0.00215694 0)
(0.0448583 -0.00180936 0)
(0.0448338 -0.00148736 0)
(0.0448197 -0.00118767 0)
(0.0448125 -0.000906742 0)
(0.0448089 -0.000641085 0)
(0.0448066 -0.000390088 0)
(0.0448071 -0.000178472 0)
(0.0506027 -0.00702679 0)
(0.04922 -0.00683848 0)
(0.0484189 -0.00648273 0)
(0.0477575 -0.00604541 0)
(0.0471843 -0.00556468 0)
(0.0467135 -0.00506897 0)
(0.0463332 -0.00457724 0)
(0.0460284 -0.0041009 0)
(0.0457864 -0.00364646 0)
(0.045596 -0.00321725 0)
(0.045448 -0.00281448 0)
(0.0453343 -0.00243796 0)
(0.0452483 -0.00208657 0)
(0.0451845 -0.00175854 0)
(0.0451381 -0.00145168 0)
(0.0451052 -0.00116338 0)
(0.0450827 -0.00089077 0)
(0.0450675 -0.000630993 0)
(0.0450576 -0.000384248 0)
(0.0450543 -0.000175914 0)
(0.0506696 -0.00621114 0)
(0.0494664 -0.0060544 0)
(0.0487643 -0.00577956 0)
(0.0481616 -0.00543855 0)
(0.0476213 -0.00505327 0)
(0.0471623 -0.0046449 0)
(0.0467791 -0.00422973 0)
(0.046462 -0.00381893 0)
(0.0462019 -0.00341978 0)
(0.0459904 -0.00303673 0)
(0.04582 -0.00267221 0)
(0.045684 -0.00232716 0)
(0.0455767 -0.00200145 0)
(0.045493 -0.00169422 0)
(0.0454288 -0.00140399 0)
(0.0453805 -0.00112888 0)
(0.0453452 -0.00086664 0)
(0.0453204 -0.000615058 0)
(0.045304 -0.000374987 0)
(0.0452972 -0.000171915 0)
(0.0507125 -0.00548724 0)
(0.0496589 -0.0053645 0)
(0.049035 -0.00514933 0)
(0.0484837 -0.00487948 0)
(0.0479779 -0.00456804 0)
(0.047537 -0.00423054 0)
(0.0471591 -0.00388027 0)
(0.0468384 -0.00352716 0)
(0.0465685 -0.00317834 0)
(0.0463436 -0.00283863 0)
(0.0461575 -0.00251108 0)
(0.046005 -0.00219734 0)
(0.0458812 -0.00189801 0)
(0.0457819 -0.00161288 0)
(0.0457034 -0.00134112 0)
(0.0456426 -0.00108143 0)
(0.045597 -0.00083213 0)
(0.0455642 -0.000591582 0)
(0.0455424 -0.000361109 0)
(0.0455326 -0.000165808 0)
(0.0507393 -0.00484192 0)
(0.0498106 -0.00474692 0)
(0.0492496 -0.00457742 0)
(0.0487428 -0.00436214 0)
(0.0482702 -0.00410897 0)
(0.0478501 -0.00382939 0)
(0.0474825 -0.00353403 0)
(0.0471639 -0.00323138 0)
(0.0468904 -0.00292792 0)
(0.0466577 -0.00262842 0)
(0.0464613 -0.00233611 0)
(0.0462971 -0.00205303 0)
(0.0461611 -0.00178025 0)
(0.0460499 -0.00151804 0)
(0.0459602 -0.00126607 0)
(0.0458895 -0.00102352 0)
(0.0458356 -0.000789193 0)
(0.0457964 -0.000561937 0)
(0.0457701 -0.000343411 0)
(0.0457577 -0.000157915 0)
(0.0507476 -0.00426025 0)
(0.0499284 -0.00418871 0)
(0.04942 -0.00405529 0)
(0.0489522 -0.0038829 0)
(0.0485106 -0.00367641 0)
(0.0481119 -0.00344449 0)
(0.0477572 -0.00319561 0)
(0.0474445 -0.00293687 0)
(0.0471715 -0.00267399 0)
(0.0469354 -0.00241136 0)
(0.0467329 -0.00215219 0)
(0.0465609 -0.00189867 0)
(0.0464162 -0.00165211 0)
(0.0462961 -0.00141312 0)
(0.0461979 -0.00118173 0)
(0.0461195 -0.00095751 0)
(0.046059 -0.000739661 0)
(0.0460147 -0.000527415 0)
(0.0459849 -0.000322658 0)
(0.0459705 -0.000148569 0)
(0.0507427 -0.00373402 0)
(0.0500194 -0.00368098 0)
(0.0495555 -0.00357615 0)
(0.0491217 -0.00343793 0)
(0.0487086 -0.00326927 0)
(0.0483309 -0.00307684 0)
(0.0479901 -0.00286742 0)
(0.0476855 -0.00264689 0)
(0.0474159 -0.00242016 0)
(0.0471795 -0.00219115 0)
(0.046974 -0.0019629 0)
(0.0467972 -0.00173756 0)
(0.0466467 -0.00151658 0)
(0.0465202 -0.00130075 0)
(0.0464158 -0.00109036 0)
(0.0463316 -0.000885254 0)
(0.0462661 -0.000684968 0)
(0.0462178 -0.000489036 0)
(0.0461852 -0.000299468 0)
(0.0461691 -0.000138052 0)
(0.050728 -0.00325499 0)
(0.0500893 -0.00321636 0)
(0.0496631 -0.00313426 0)
(0.049259 -0.0030235 0)
(0.0488717 -0.0028858 0)
(0.0485138 -0.00272636 0)
(0.0481871 -0.00255061 0)
(0.0478917 -0.00236338 0)
(0.0476272 -0.00216884 0)
(0.0473926 -0.00197044 0)
(0.0471865 -0.00177091 0)
(0.0470072 -0.00157229 0)
(0.046853 -0.00137604 0)
(0.0467223 -0.00118306 0)
(0.0466134 -0.000993794 0)
(0.046525 -0.000808295 0)
(0.0464557 -0.000626329 0)
(0.0464043 -0.000447674 0)
(0.0463696 -0.000274375 0)
(0.0463523 -0.000126612 0)
(0.0507072 -0.00281632 0)
(0.0501425 -0.00278865 0)
(0.0497484 -0.00272462 0)
(0.0493701 -0.0026361 0)
(0.0490058 -0.00252396 0)
(0.0486661 -0.00239228 0)
(0.0483531 -0.00224543 0)
(0.0480673 -0.00208737 0)
(0.0478088 -0.00192159 0)
(0.0475774 -0.00175105 0)
(0.0473722 -0.00157816 0)
(0.0471921 -0.00140481 0)
(0.0470359 -0.00123238 0)
(0.0469025 -0.00106178 0)
(0.0467906 -0.000893559 0)
(0.0466991 -0.000727904 0)
(0.0466271 -0.000564755 0)
(0.0465735 -0.000404063 0)
(0.0465371 -0.000247834 0)
(0.0465189 -0.000114463 0)
(0.0506831 -0.0024118 0)
(0.0501827 -0.00239239 0)
(0.0498157 -0.00234277 0)
(0.0494596 -0.00227239 0)
(0.0491155 -0.00218153 0)
(0.0487923 -0.00207342 0)
(0.048492 -0.00195158 0)
(0.0482156 -0.00181922 0)
(0.0479636 -0.00167924 0)
(0.0477361 -0.00153414 0)
(0.0475327 -0.00138602 0)
(0.047353 -0.00123655 0)
(0.0471961 -0.00108698 0)
(0.0470611 -0.000938224 0)
(0.0469473 -0.000790838 0)
(0.0468538 -0.0006451 0)
(0.0467799 -0.000501064 0)
(0.0467247 -0.000358803 0)
(0.0466871 -0.000220219 0)
(0.0466682 -0.000101784 0)
(0.050658 -0.0020358 0)
(0.0502129 -0.0020227 0)
(0.0498684 -0.00198466 0)
(0.0495313 -0.00192919 0)
(0.0492047 -0.00185623 0)
(0.048896 -0.00176833 0)
(0.0486073 -0.00166832 0)
(0.0483396 -0.0015588 0)
(0.0480939 -0.00144212 0)
(0.0478706 -0.00132038 0)
(0.0476698 -0.00119535 0)
(0.0474911 -0.00106847 0)
(0.0473342 -0.000940874 0)
(0.0471986 -0.000813379 0)
(0.0470837 -0.000686541 0)
(0.0469889 -0.000560672 0)
(0.0469137 -0.000435901 0)
(0.0468574 -0.000312372 0)
(0.046819 -0.000191829 0)
(0.0467996 -8.87173e-05 0)
(0.0506331 -0.00168369 0)
(0.050235 -0.00167529 0)
(0.0499092 -0.00164659 0)
(0.0495881 -0.00160348 0)
(0.0492764 -0.00154573 0)
(0.0489802 -0.00147538 0)
(0.0487015 -0.00139464 0)
(0.0484418 -0.0013056 0)
(0.048202 -0.00121015 0)
(0.0479828 -0.00111 0)
(0.0477846 -0.00100661 0)
(0.0476075 -0.000901205 0)
(0.0474512 -0.00079474 0)
(0.0473155 -0.000687946 0)
(0.0472 -0.000581334 0)
(0.0471045 -0.000475217 0)
(0.0470284 -0.000369757 0)
(0.0469714 -0.000265137 0)
(0.0469325 -0.000162901 0)
(0.0469127 -7.53772e-05 0)
(0.0506107 -0.00135048 0)
(0.050251 -0.00134616 0)
(0.0499402 -0.00132515 0)
(0.0496322 -0.0012924 0)
(0.0493328 -0.00124776 0)
(0.0490471 -0.00119281 0)
(0.048777 -0.0011293 0)
(0.0485241 -0.00105885 0)
(0.0482895 -0.000982938 0)
(0.0480742 -0.00090292 0)
(0.0478786 -0.000819965 0)
(0.047703 -0.000735058 0)
(0.0475475 -0.000648995 0)
(0.047412 -0.000562388 0)
(0.0472964 -0.00047568 0)
(0.0472005 -0.00038916 0)
(0.047124 -0.000302996 0)
(0.0470665 -0.000217378 0)
(0.0470272 -0.00013361 0)
(0.0470072 -6.18505e-05 0)
(0.050588 -0.00103442 0)
(0.0502612 -0.00103228 0)
(0.049963 -0.0010173 0)
(0.0496655 -0.000993247 0)
(0.049376 -0.000960016 0)
(0.0490987 -0.000918813 0)
(0.0488355 -0.000870939 0)
(0.0485882 -0.000817591 0)
(0.0483579 -0.000759883 0)
(0.0481458 -0.000698829 0)
(0.0479525 -0.000635322 0)
(0.0477785 -0.000570119 0)
(0.0476239 -0.000503841 0)
(0.0474888 -0.000436974 0)
(0.0473733 -0.000369877 0)
(0.0472772 -0.000302793 0)
(0.0472004 -0.000235874 0)
(0.0471427 -0.000169291 0)
(0.0471031 -0.000104088 0)
(0.047083 -4.82026e-05 0)
(0.0505745 -0.000728067 0)
(0.0502691 -0.000729855 0)
(0.0499793 -0.000719965 0)
(0.0496895 -0.000703321 0)
(0.0494074 -0.000680225 0)
(0.0491363 -0.000651526 0)
(0.0488784 -0.000618097 0)
(0.0486353 -0.000580742 0)
(0.0484085 -0.000540223 0)
(0.0481989 -0.000497242 0)
(0.0480075 -0.000452422 0)
(0.0478347 -0.0004063 0)
(0.0476808 -0.000359319 0)
(0.0475462 -0.000311828 0)
(0.0474309 -0.000264093 0)
(0.0473347 -0.000216297 0)
(0.0472579 -0.000168559 0)
(0.0472 -0.000121014 0)
(0.0471603 -7.44285e-05 0)
(0.0471401 -3.44852e-05 0)
(0.0505507 -0.000442784 0)
(0.0502709 -0.000438943 0)
(0.0499899 -0.00043076 0)
(0.0497056 -0.000420005 0)
(0.0494283 -0.000406041 0)
(0.0491614 -0.000388986 0)
(0.048907 -0.000369192 0)
(0.0486668 -0.000347068 0)
(0.0484423 -0.000323036 0)
(0.0482345 -0.000297503 0)
(0.0480444 -0.000270833 0)
(0.0478725 -0.000243347 0)
(0.0477193 -0.000215309 0)
(0.047585 -0.00018693 0)
(0.0474698 -0.000158373 0)
(0.0473737 -0.000129751 0)
(0.0472969 -0.000101138 0)
(0.0472389 -7.2622e-05 0)
(0.0471991 -4.46889e-05 0)
(0.0471789 -2.07382e-05 0)
(0.050578 -0.00014612 0)
(0.0502858 -0.000147401 0)
(0.0499995 -0.000143873 0)
(0.0497152 -0.000139811 0)
(0.0494396 -0.000135002 0)
(0.0491747 -0.000129303 0)
(0.0489221 -0.00012274 0)
(0.0486835 -0.000115414 0)
(0.0484602 -0.000107454 0)
(0.0482535 -9.899e-05 0)
(0.0480641 -9.01422e-05 0)
(0.0478927 -8.10156e-05 0)
(0.0477399 -7.16987e-05 0)
(0.0476058 -6.22624e-05 0)
(0.0474907 -5.27608e-05 0)
(0.0473947 -4.32326e-05 0)
(0.0473178 -3.37021e-05 0)
(0.0472597 -2.42008e-05 0)
(0.04722 -1.49016e-05 0)
(0.0471998 -6.93044e-06 0)
(0.060169 -0.000620328 3.98903e-21)
(0.0599852 -0.00186385 0)
(0.0596184 -0.00308462 -8.78758e-22)
(0.0590745 -0.00426441 -2.66618e-20)
(0.0583654 -0.00538195 5.22156e-20)
(0.0575092 -0.00641099 0)
(0.0565226 -0.00731589 4.71964e-20)
(0.0553733 -0.00805328 0)
(0.054208 -0.0085896 4.35816e-20)
(0.051594 -0.0092028 -6.58733e-22)
(0.0589565 -0.000662912 -4.01295e-21)
(0.0587512 -0.00200872 9.3256e-22)
(0.0583431 -0.00333036 -9.34188e-22)
(0.0577435 -0.00460802 -1.30362e-22)
(0.0569716 -0.00581976 -2.48219e-20)
(0.0560589 -0.00694261 -1.61176e-21)
(0.0550491 -0.00795059 0)
(0.0540167 -0.00881755 -4.55919e-20)
(0.0534164 -0.00948682 0)
(0.0509262 -0.00971301 -4.14378e-20)
(0.0582334 -0.000525213 8.0667e-21)
(0.058075 -0.00157887 0)
(0.0577627 -0.00261265 -8.93014e-22)
(0.0573062 -0.00361261 8.01817e-22)
(0.0567194 -0.00456543 2.64676e-20)
(0.0560199 -0.00545986 0)
(0.0552172 -0.0062889 4.66143e-20)
(0.0542999 -0.00706185 4.68521e-20)
(0.0537533 -0.00782629 0)
(0.0509742 -0.00851399 4.10073e-20)
(0.0575505 -0.000470032 -3.55869e-21)
(0.0574047 -0.00141853 1.49953e-20)
(0.0571171 -0.00235492 0)
(0.0566969 -0.00326999 2.80268e-20)
(0.056158 -0.0041534 1.62438e-21)
(0.0555217 -0.00499373 -3.16938e-21)
(0.0548053 -0.00577852 -4.49599e-20)
(0.0540113 -0.0064967 -1.46901e-21)
(0.0536368 -0.00713415 -4.36268e-20)
(0.0510743 -0.00775269 0)
(0.0569949 -0.000400409 0)
(0.0568682 -0.00120521 -1.46108e-20)
(0.0566194 -0.00200006 -1.67098e-20)
(0.0562572 -0.00277791 2.62567e-21)
(0.0557933 -0.0035317 -1.72074e-21)
(0.0552439 -0.00425514 -1.54979e-21)
(0.0546169 -0.00494436 -4.54236e-20)
(0.0539029 -0.00559877 -2.86422e-21)
(0.0535613 -0.00620298 1.08389e-21)
(0.0512138 -0.00685421 4.12985e-20)
(0.0565014 -0.000348268 4.09886e-21)
(0.0563859 -0.00104914 9.56155e-22)
(0.0561591 -0.00174406 -1.89302e-21)
(0.0558294 -0.00242853 9.09591e-22)
(0.055408 -0.00309739 -2.70166e-20)
(0.0549112 -0.0037448 0)
(0.0543475 -0.00436551 4.98172e-20)
(0.0537165 -0.00495437 -1.47337e-21)
(0.0534162 -0.00548435 8.69016e-20)
(0.0513354 -0.00608596 -8.2059e-20)
(0.0560778 -0.000299701 -4.11906e-21)
(0.0559722 -0.000902109 -7.87727e-21)
(0.0557654 -0.00150051 1.49984e-20)
(0.0554652 -0.00209185 -2.68443e-20)
(0.0550823 -0.00267269 -1.81866e-21)
(0.054631 -0.00323928 -2.57256e-20)
(0.0541177 -0.00378908 1.47895e-21)
(0.0535483 -0.00431864 -2.87171e-21)
(0.0532545 -0.00480168 -4.18856e-20)
(0.0514132 -0.00536753 4.07651e-20)
(0.0557094 -0.000258341 0)
(0.0556109 -0.000777606 1.68017e-20)
(0.0554181 -0.00129484 -1.88685e-21)
(0.0551385 -0.00180837 1.52228e-20)
(0.0547825 -0.00231595 -7.49312e-23)
(0.0543636 -0.00281474 4.99637e-20)
(0.0538882 -0.00330258 -2.28337e-20)
(0.0533702 -0.00377517 0)
(0.0530756 -0.00420925 0)
(0.0514516 -0.00472723 0)
(0.0553918 -0.000221564 0)
(0.0552988 -0.000666667 -1.49479e-20)
(0.0551169 -0.00111103 -9.70277e-22)
(0.0548534 -0.00155391 1.44071e-20)
(0.0545182 -0.00199409 2.73024e-20)
(0.054124 -0.00242983 -2.7383e-20)
(0.0536768 -0.00286003 2.73933e-20)
(0.053197 -0.00328058 -1.47384e-21)
(0.052891 -0.00367364 0)
(0.0514553 -0.00414748 2.03224e-20)
(0.0551184 -0.000189227 5.12139e-22)
(0.0550295 -0.000569234 8.46813e-21)
(0.0548555 -0.000949542 1.33568e-20)
(0.0546036 -0.00133017 -8.4203e-22)
(0.0542834 -0.00171068 1.75709e-21)
(0.0539066 -0.00209018 -2.75358e-20)
(0.0534798 -0.00246811 2.75123e-20)
(0.0530275 -0.00284047 -1.4727e-21)
(0.052705 -0.00319516 0)
(0.0514329 -0.00362527 -4.03331e-20)
(0.0548848 -0.000160501 0)
(0.0547988 -0.000482677 8.04951e-21)
(0.0546306 -0.000805888 1.74895e-23)
(0.0543871 -0.00113071 0)
(0.0540775 -0.00145735 0)
(0.0537127 -0.00178563 2.43682e-20)
(0.0533 -0.00211555 -2.28405e-20)
(0.0528658 -0.00244354 -1.3969e-21)
(0.0525226 -0.00276308 7.24862e-22)
(0.0513916 -0.00315163 2.06573e-20)
(0.0546865 -0.000134893 0)
(0.0546027 -0.000405548 -1.519e-20)
(0.0544386 -0.000677781 -1.73298e-20)
(0.0542009 -0.000952596 2.72109e-21)
(0.0538983 -0.00123068 -1.76916e-21)
(0.0535413 -0.00151244 -1.5884e-21)
(0.0531374 -0.00179828 3.0582e-21)
(0.0527135 -0.00208523 2.00749e-20)
(0.0523473 -0.0023716 2.02426e-21)
(0.051338 -0.00271996 -6.39957e-22)
(0.0545202 -0.000111951 0)
(0.0544378 -0.000336486 8.1305e-21)
(0.0542765 -0.000562987 -9.46817e-22)
(0.0540426 -0.000792758 9.38937e-22)
(0.0537444 -0.00102685 0)
(0.0533917 -0.00126609 0)
(0.0529926 -0.00151122 0)
(0.0525725 -0.00176001 -2.28383e-20)
(0.0521823 -0.00201459 2.13416e-20)
(0.0512778 -0.00232372 0)
(0.0543826 -9.11574e-05 0)
(0.0543012 -0.000273912 5.08956e-21)
(0.0541418 -0.000458919 6.79196e-21)
(0.0539101 -0.0006477 9.18134e-21)
(0.0536142 -0.000841574 -1.78024e-21)
(0.0532634 -0.0010417 1.14904e-20)
(0.0528659 -0.00124905 -1.0681e-20)
(0.0524446 -0.0014622 0)
(0.0520307 -0.00168596 6.96162e-22)
(0.0512156 -0.00195661 -2.03148e-20)
(0.0542717 -7.24423e-05 -1.07433e-21)
(0.0541909 -0.000217712 -4.10848e-21)
(0.0540324 -0.00036541 -8.77401e-21)
(0.0538018 -0.00051717 -6.45439e-21)
(0.0535066 -0.000674455 0)
(0.0531554 -0.000838593 -1.46816e-20)
(0.0527569 -0.00101065 1.52821e-20)