/*--------------------------------*- C++ -*----------------------------------*\
| =========                 |                                                 |
| \\      /  F ield         | OpenFOAM: The Open Source CFD Toolbox           |
|  \\    /   O peration     | Version:  4.1                                   |
|   \\  /    A nd           | Web:      www.OpenFOAM.org                      |
|    \\/     M anipulation  |                                                 |
\*---------------------------------------------------------------------------*/
FoamFile
{
    version     2.0;
    format      ascii;
    class       volScalarField;
    location    "8.7";
    object      p;
}
// * * * * * * * * * * * * * * * * * * * * * * * * * * * * * * * * * * * * * //

dimensions      [0 2 -2 0 0 0 0];

internalField   nonuniform List<scalar> 
2000
(
-0.297199
-0.286421
-0.275696
-0.265946
-0.258007
-0.251559
-0.245403
-0.240019
-0.232299
-0.228964
-0.31903
-0.304361
-0.291032
-0.278971
-0.268272
-0.258235
-0.248096
-0.237642
-0.226005
-0.216179
-0.346423
-0.326981
-0.310623
-0.295523
-0.280597
-0.26532
-0.249563
-0.233649
-0.217423
-0.202045
-0.379605
-0.3545
-0.334539
-0.314891
-0.293574
-0.271214
-0.248836
-0.227238
-0.20634
-0.187984
-0.418286
-0.386482
-0.361936
-0.335226
-0.305031
-0.274122
-0.244598
-0.217277
-0.192381
-0.170615
-0.460502
-0.421575
-0.390346
-0.353421
-0.312287
-0.272092
-0.235393
-0.202741
-0.173955
-0.148981
-0.502846
-0.45725
-0.415755
-0.365671
-0.312608
-0.263253
-0.219855
-0.182298
-0.149921
-0.121719
-0.540308
-0.489161
-0.433601
-0.368447
-0.30362
-0.245926
-0.196612
-0.154773
-0.119051
-0.0878179
-0.567535
-0.511435
-0.439565
-0.358964
-0.28342
-0.218609
-0.164401
-0.11904
-0.0805011
-0.0468469
-0.579858
-0.518406
-0.429713
-0.335069
-0.250561
-0.180091
-0.122117
-0.0741276
-0.0335474
0.00152557
-0.201409
-0.208074
-0.211562
-0.214946
-0.218674
-0.222491
-0.226185
-0.229616
-0.232798
-0.235962
-0.205008
-0.211114
-0.214378
-0.217684
-0.221378
-0.225178
-0.228851
-0.232198
-0.235171
-0.238333
-0.211591
-0.216582
-0.219405
-0.22246
-0.225965
-0.229607
-0.233122
-0.236235
-0.238724
-0.241512
-0.220044
-0.223551
-0.225634
-0.228137
-0.231164
-0.234369
-0.237458
-0.240148
-0.241927
-0.243065
-0.229258
-0.231104
-0.232099
-0.233652
-0.235818
-0.238257
-0.240615
-0.242635
-0.243582
-0.242644
-0.238463
-0.238626
-0.238171
-0.238345
-0.23926
-0.24065
-0.242088
-0.243241
-0.243544
-0.238864
-0.247461
-0.245921
-0.243767
-0.242158
-0.24149
-0.241637
-0.242089
-0.242251
-0.243329
-0.23408
-0.256706
-0.253402
-0.249308
-0.245675
-0.243257
-0.242053
-0.2416
-0.240602
-0.242909
-0.23082
-0.267209
-0.26191
-0.255728
-0.250016
-0.245799
-0.243269
-0.241735
-0.239811
-0.241303
-0.230849
-0.280272
-0.27256
-0.264187
-0.256445
-0.25051
-0.246371
-0.242996
-0.240177
-0.237784
-0.232439
-0.239207
-0.241815
-0.243964
-0.245495
-0.24622
-0.245935
-0.24441
-0.24139
-0.236597
-0.22972
-0.220415
-0.208368
-0.193336
-0.175241
-0.153964
-0.129592
-0.101991
-0.0702063
-0.034665
-0.00564288
-0.242544
-0.245301
-0.247607
-0.249366
-0.25036
-0.250379
-0.24919
-0.246528
-0.242104
-0.235602
-0.226676
-0.215036
-0.200416
-0.182729
-0.161688
-0.137249
-0.109399
-0.0774843
-0.0415122
-0.008911
-0.247585
-0.250535
-0.253078
-0.255233
-0.256695
-0.257243
-0.256634
-0.254587
-0.250794
-0.244911
-0.236565
-0.225376
-0.21157
-0.194441
-0.173735
-0.149046
-0.120724
-0.088312
-0.0514908
-0.0136442
-0.252627
-0.255203
-0.258079
-0.260744
-0.262757
-0.26392
-0.263989
-0.262647
-0.259568
-0.254398
-0.246719
-0.236403
-0.222925
-0.206248
-0.186087
-0.160044
-0.131543
-0.0984235
-0.060568
-0.0180671
-0.254138
-0.258405
-0.261256
-0.26424
-0.266873
-0.268687
-0.269398
-0.268697
-0.266209
-0.261665
-0.254535
-0.244717
-0.231577
-0.2149
-0.194284
-0.169143
-0.139686
-0.105412
-0.0662749
-0.0215743
-0.253407
-0.259733
-0.262466
-0.265408
-0.2685
-0.270925
-0.272171
-0.271883
-0.269474
-0.265776
-0.25932
-0.249655
-0.236647
-0.219907
-0.199044
-0.173679
-0.143675
-0.108589
-0.0687866
-0.0230136
-0.251133
-0.259706
-0.262168
-0.264603
-0.267829
-0.270685
-0.272337
-0.272631
-0.271431
-0.267061
-0.260348
-0.250712
-0.237645
-0.220739
-0.199647
-0.174007
-0.143718
-0.108347
-0.068514
-0.0232103
-0.24853
-0.258429
-0.260272
-0.262079
-0.264887
-0.267773
-0.269468
-0.269592
-0.267911
-0.263882
-0.257199
-0.247447
-0.234212
-0.217147
-0.195922
-0.170267
-0.1401
-0.105214
-0.066125
-0.0226183
-0.246925
-0.254964
-0.255171
-0.255836
-0.258797
-0.261253
-0.26251
-0.262419
-0.260571
-0.256452
-0.24962
-0.239749
-0.226433
-0.209414
-0.188348
-0.163169
-0.133693
-0.100129
-0.0625682
-0.0217031
-0.245744
-0.249451
-0.248269
-0.248548
-0.249899
-0.250933
-0.251276
-0.250572
-0.248237
-0.243801
-0.236812
-0.226978
-0.213855
-0.197292
-0.176894
-0.152826
-0.124765
-0.0933534
-0.0582371
-0.0207272
-0.229125
-0.234739
-0.237561
-0.238461
-0.238831
-0.239087
-0.238875
-0.237562
-0.234534
-0.229424
-0.221856
-0.21163
-0.198364
-0.182018
-0.162243
-0.139352
-0.113003
-0.0840801
-0.0520254
-0.0186196
-0.216613
-0.224886
-0.227322
-0.226459
-0.225205
-0.224411
-0.223442
-0.221418
-0.217674
-0.211924
-0.203886
-0.193462
-0.180334
-0.164546
-0.145776
-0.124436
-0.100161
-0.0739611
-0.0451919
-0.0159422
-0.198028
-0.210094
-0.212957
-0.211192
-0.209043
-0.207686
-0.20635
-0.203997
-0.19993
-0.193931
-0.185811
-0.175565
-0.162931
-0.148014
-0.130522
-0.110914
-0.0888362
-0.0653335
-0.0397661
-0.0141719
-0.178796
-0.192712
-0.196408
-0.194757
-0.192426
-0.190871
-0.189396
-0.186949
-0.182822
-0.176844
-0.168894
-0.159038
-0.147068
-0.133135
-0.116975
-0.0990667
-0.0790744
-0.0580162
-0.035239
-0.0126007
-0.159147
-0.17383
-0.178737
-0.177933
-0.175939
-0.17445
-0.172993
-0.170607
-0.166606
-0.16084
-0.153231
-0.143899
-0.132685
-0.119771
-0.104925
-0.0886261
-0.0705519
-0.0516666
-0.0313165
-0.0112119
-0.139212
-0.154568
-0.160795
-0.161131
-0.159771
-0.158554
-0.157253
-0.155055
-0.15132
-0.14591
-0.138769
-0.130055
-0.119649
-0.107763
-0.0941861
-0.0793922
-0.0630684
-0.0461219
-0.0279127
-0.0100181
-0.120183
-0.135792
-0.1431
-0.144603
-0.144037
-0.143255
-0.142236
-0.140332
-0.136965
-0.132012
-0.125425
-0.117389
-0.107817
-0.0969425
-0.0845747
-0.0711795
-0.0564489
-0.0412426
-0.0249309
-0.00897855
-0.10229
-0.11781
-0.12593
-0.128533
-0.128839
-0.128612
-0.127978
-0.126447
-0.123516
-0.119082
-0.113102
-0.105777
-0.0970409
-0.0871494
-0.0759237
-0.0638247
-0.0505456
-0.0369083
-0.0222873
-0.00806229
-0.0855492
-0.100764
-0.109491
-0.113097
-0.114292
-0.11469
-0.114512
-0.113407
-0.110953
-0.107072
-0.101724
-0.0951198
-0.0872083
-0.0782603
-0.0681071
-0.0572071
-0.0452509
-0.0330329
-0.0199264
-0.00725013
-0.0699651
-0.0847778
-0.0939594
-0.0984609
-0.100517
-0.101566
-0.101881
-0.101232
-0.0992748
-0.0959589
-0.0912477
-0.0853568
-0.0782434
-0.0701919
-0.0610391
-0.0512439
-0.0404917
-0.0295582
-0.0178114
-0.00652786
-0.055619
-0.0699761
-0.0794843
-0.0847654
-0.0876264
-0.0893196
-0.0901413
-0.0899583
-0.0884982
-0.0857419
-0.0816541
-0.0764536
-0.0701007
-0.0628906
-0.0546633
-0.0458799
-0.0362193
-0.0264453
-0.015918
-0.00588521
-0.0426014
-0.0564554
-0.066177
-0.0721264
-0.0757242
-0.0780337
-0.079353
-0.0796287
-0.0786523
-0.0764348
-0.0729428
-0.0683965
-0.0627558
-0.0563249
-0.0489447
-0.04108
-0.0324024
-0.0236688
-0.01423
-0.00531527
-0.0309582
-0.0442809
-0.054125
-0.0606413
-0.0649023
-0.0677866
-0.0695792
-0.0702919
-0.0697726
-0.0680609
-0.0651247
-0.0611852
-0.0561993
-0.0504788
-0.0438635
-0.0368232
-0.0290217
-0.0212131
-0.0127377
-0.00481357
-0.02071
-0.0335042
-0.0434046
-0.0503969
-0.0552448
-0.0586517
-0.060881
-0.0619971
-0.0618974
-0.0606478
-0.0582176
-0.054828
-0.0504316
-0.0453465
-0.0394104
-0.0330983
-0.0260666
-0.0190688
-0.0114351
-0.00437728
-0.0118748
-0.0241713
-0.0340834
-0.0414694
-0.0468256
-0.050695
-0.0533145
-0.054791
-0.0550648
-0.0542253
-0.0522428
-0.0493382
-0.0454593
-0.0409291
-0.0355828
-0.0299006
-0.0235318
-0.0172312
-0.0103191
-0.00400468
-0.00447133
-0.0163218
-0.0262184
-0.0339232
-0.0397072
-0.0439724
-0.046928
-0.048715
-0.0493094
-0.0488213
-0.0472217
-0.0447308
-0.0412918
-0.0372313
-0.0323822
-0.0272293
-0.0214157
-0.0156982
-0.00938821
-0.00369484
0.00148285
-0.00999172
-0.0198607
-0.0278154
-0.0339445
-0.0385328
-0.0417641
-0.0438056
-0.0446624
-0.0444615
-0.0431746
-0.041021
-0.0379396
-0.0342598
-0.0298124
-0.025086
-0.0197187
-0.0144696
-0.00864218
-0.00344723
0.0059786
-0.00521057
-0.0150565
-0.0231995
-0.0295893
-0.0344218
-0.0378618
-0.0400964
-0.0411528
-0.0411704
-0.0401214
-0.0382242
-0.0354141
-0.0320226
-0.0278788
-0.0234742
-0.0184431
-0.0135465
-0.00808197
-0.0032617
0.00905688
-0.00196285
-0.011814
-0.0200969
-0.0266679
-0.0316663
-0.0352467
-0.0376106
-0.038801
-0.0389656
-0.0380772
-0.0363523
-0.033725
-0.0305264
-0.0265866
-0.0223964
-0.0175916
-0.0129291
-0.00771038
-0.00313636
0.0107608
-0.000214511
-0.0101163
-0.0184987
-0.0251769
-0.0302668
-0.0339231
-0.0363543
-0.0376151
-0.0378541
-0.0370494
-0.0354102
-0.0328784
-0.0297734
-0.0259413
-0.0218522
-0.0171697
-0.0126128
-0.00753255
-0.00306232
0.0297687
-0.0186046
-0.0605467
-0.0961881
-0.125743
-0.149934
-0.169773
-0.186907
-0.201011
-0.2234
0.0531965
0.00611509
-0.034983
-0.0706651
-0.100853
-0.127041
-0.148281
-0.169387
-0.183807
-0.206761
0.0742313
0.0289856
-0.0105553
-0.0456624
-0.0754927
-0.102904
-0.124494
-0.14732
-0.161516
-0.182699
0.0930162
0.049572
0.0115089
-0.0230273
-0.0522878
-0.0800472
-0.101466
-0.124114
-0.139316
-0.160261
0.109749
0.0678908
0.0310607
-0.00288127
-0.0316216
-0.0591433
-0.080645
-0.103012
-0.119839
-0.140381
0.124638
0.0842301
0.0484855
0.015271
-0.0130162
-0.0400791
-0.0619212
-0.084036
-0.10154
-0.121071
0.137922
0.0988858
0.0641448
0.0317587
0.0038922
-0.022613
-0.0445804
-0.0661357
-0.0835169
-0.102345
0.149813
0.112071
0.0782667
0.0467375
0.01932
-0.00653808
-0.0283059
-0.0492339
-0.0664275
-0.0848632
0.160473
0.123929
0.0910011
0.0603127
0.0333937
0.00819579
-0.0132578
-0.0337118
-0.0507744
-0.0687365
0.170024
0.13457
0.102461
0.0725698
0.0461663
0.0215677
0.00042135
-0.0196278
-0.0364808
-0.0538178
0.178556
0.144081
0.11273
0.0835761
0.0576718
0.0336133
0.0127774
-0.00683428
-0.0234116
-0.0401047
0.186131
0.152532
0.121873
0.0933913
0.0679587
0.0444084
0.0238918
0.00473276
-0.0115847
-0.027692
0.192795
0.159975
0.129939
0.102068
0.0770744
0.0540043
0.0337892
0.0150498
-0.00105163
-0.0166338
0.198577
0.166447
0.136965
0.109645
0.0850506
0.0624192
0.0424685
0.024099
0.00817985
-0.00693487
0.203493
0.171972
0.142979
0.116149
0.0919065
0.0696632
0.0499379
0.0318884
0.016123
0.0014074
0.207553
0.176564
0.147997
0.121594
0.0976569
0.0757483
0.0562126
0.0384306
0.0227859
0.00838872
0.210762
0.180233
0.152032
0.125994
0.102316
0.0806869
0.0613049
0.0437329
0.0281696
0.0140036
0.213132
0.182992
0.155105
0.12937
0.105907
0.0845014
0.0652366
0.0478132
0.0322886
0.0182601
0.214647
0.184832
0.157209
0.131728
0.108447
0.0872184
0.0680437
0.0507172
0.0351984
0.0212192
0.215234
0.185646
0.158206
0.132912
0.109778
0.0886839
0.0695868
0.0523327
0.0368262
0.0228627
0.759007
0.762042
0.755199
0.739143
0.71483
0.681421
0.634968
0.568852
0.481094
0.418618
0.690274
0.686895
0.668535
0.642592
0.610028
0.567739
0.510395
0.431046
0.327936
0.253373
0.617337
0.605443
0.577611
0.543567
0.503263
0.452121
0.384202
0.292588
0.175602
0.0911424
0.533846
0.515547
0.482125
0.442589
0.395858
0.336726
0.259331
0.157235
0.0282338
-0.0624396
0.445934
0.422607
0.385392
0.341803
0.28982
0.223925
0.138506
0.028423
-0.110212
-0.200343
0.359148
0.331241
0.291009
0.244191
0.187981
0.116696
0.0247729
-0.0914557
-0.230876
-0.320076
0.275995
0.244031
0.201601
0.152459
0.0932388
0.0182226
-0.0777888
-0.197098
-0.331984
-0.418799
0.197787
0.162628
0.119087
0.0686995
0.0079291
-0.0690573
-0.166266
-0.284758
-0.412487
-0.494286
0.125389
0.0883345
0.0451827
-0.00529154
-0.0668333
-0.143522
-0.239015
-0.353032
-0.470647
-0.545654
0.0583455
0.0226258
-0.0193647
-0.069083
-0.129593
-0.204078
-0.295306
-0.401305
-0.505674
-0.573533
1.17745
1.19706
1.21922
1.24397
1.27125
1.30079
1.33172
1.36161
1.38742
1.41605
1.17213
1.1906
1.21187
1.23569
1.26181
1.28991
1.31907
1.34681
1.37
1.3967
1.16115
1.17736
1.19689
1.21887
1.24271
1.26795
1.2936
1.317
1.33519
1.35778
1.14388
1.15678
1.17378
1.19308
1.21355
1.2346
1.2551
1.27211
1.28293
1.29946
1.11954
1.12816
1.14194
1.1578
1.17393
1.18957
1.20337
1.21208
1.21328
1.22194
1.08726
1.09068
1.10062
1.11239
1.12335
1.13251
1.13827
1.137
1.12649
1.12575
1.04643
1.04398
1.04968
1.05685
1.06186
1.06351
1.06003
1.04729
1.02322
1.0118
0.995343
0.986442
0.988182
0.990796
0.989422
0.982869
0.969242
0.943889
0.904736
0.881585
0.934154
0.919104
0.91763
0.915174
0.906569
0.891168
0.866825
0.828173
0.773047
0.737113
0.855032
0.841481
0.839609
0.831571
0.814959
0.790235
0.754726
0.702297
0.630752
0.581452
1.0021
1.00628
1.01114
1.01649
1.02199
1.02757
1.03332
1.03935
1.04574
1.05254
1.05983
1.06763
1.07602
1.08509
1.09495
1.10571
1.11749
1.13041
1.14461
1.16022
1.00207
1.00627
1.0111
1.01637
1.02177
1.02726
1.03293
1.03887
1.04515
1.05184
1.05898
1.06662
1.07481
1.08366
1.09326
1.10372
1.11512
1.12759
1.14124
1.15613
1.00208
1.00625
1.01095
1.01605
1.02128
1.0266
1.0321
1.03785
1.04393
1.05038
1.05722
1.06451
1.07231
1.08071
1.08977
1.09958
1.11021
1.12175
1.13422
1.14764
1.00206
1.00615
1.01065
1.01549
1.02047
1.02554
1.03076
1.03621
1.04195
1.04804
1.05441
1.06115
1.06834
1.07601
1.08422
1.09301
1.10241
1.11245
1.12306
1.13413
1.00201
1.00597
1.01018
1.01466
1.01929
1.02401
1.02886
1.0339
1.03918
1.04467
1.05037
1.05635
1.06267
1.06931
1.0763
1.08363
1.09126
1.09915
1.1071
1.11479
1.00191
1.00566
1.0095
1.01352
1.01767
1.02191
1.02626
1.03073
1.03543
1.04012
1.04492
1.04991
1.05506
1.06033
1.06569
1.07104
1.0763
1.08126
1.08565
1.08875
1.00173
1.00518
1.00855
1.01199
1.01556
1.0192
1.02293
1.02682
1.03052
1.03419
1.03793
1.04166
1.04534
1.04883
1.05207
1.05484
1.057
1.05811
1.05792
1.05511
1.00147
1.00447
1.00728
1.01005
1.01293
1.01596
1.01896
1.02168
1.02432
1.02689
1.02933
1.03152
1.03336
1.03466
1.0353
1.03488
1.03325
1.0295
1.02355
1.01304
1.00105
1.00336
1.00556
1.0077
1.00984
1.01188
1.01379
1.01551
1.01703
1.01827
1.01913
1.01943
1.01904
1.01762
1.01509
1.01074
1.00471
0.995245
0.983213
0.963024
1.00078
1.00206
1.00332
1.00465
1.00592
1.007
1.00784
1.00837
1.00853
1.00817
1.0072
1.00534
1.00247
0.997988
0.991881
0.98262
0.970831
0.952548
0.931055
0.895321
1.00016
1.0006
1.00109
1.00157
1.0019
1.0019
1.00154
1.0007
0.999309
0.997177
0.99418
0.989925
0.984273
0.976416
0.966303
0.952113
0.934223
0.907839
0.873996
0.817998
0.999784
0.999223
0.998805
0.998441
0.997818
0.996733
0.995132
0.992929
0.990048
0.986248
0.981401
0.975053
0.967081
0.956592
0.943578
0.926186
0.904765
0.875526
0.840126
0.793407
0.999484
0.997856
0.996492
0.995266
0.993672
0.991461
0.988614
0.985057
0.980721
0.975336
0.968774
0.960554
0.950581
0.937967
0.922756
0.903291
0.880084
0.850351
0.815985
0.772814
0.998874
0.996544
0.994482
0.992342
0.989662
0.986247
0.982116
0.9772
0.971429
0.96451
0.956325
0.946383
0.934623
0.920195
0.903227
0.882234
0.857928
0.827837
0.794048
0.752224
0.998366
0.995398
0.992766
0.989718
0.985876
0.981182
0.975731
0.969457
0.962283
0.953899
0.944193
0.93268
0.919343
0.903374
0.884995
0.862824
0.837731
0.807334
0.773976
0.733463
0.997871
0.994317
0.991295
0.987428
0.982393
0.976354
0.969546
0.961923
0.953394
0.943623
0.932508
0.919576
0.904858
0.887588
0.868065
0.84499
0.819327
0.788838
0.755974
0.716839
0.997267
0.993296
0.990197
0.985635
0.979357
0.971878
0.963655
0.95469
0.944859
0.933787
0.921374
0.907165
0.891234
0.872865
0.852407
0.828654
0.802606
0.772216
0.739867
0.702003
0.996598
0.992398
0.989607
0.984498
0.976901
0.967843
0.958128
0.947825
0.936753
0.924471
0.910865
0.895507
0.878509
0.859213
0.837991
0.813742
0.787446
0.757265
0.725407
0.68869
0.995838
0.991628
0.989616
0.984139
0.975115
0.9643
0.952997
0.94137
0.929131
0.915734
0.901035
0.884645
0.866706
0.846631
0.824785
0.800179
0.773732
0.74382
0.712425
0.67676
0.995025
0.991059
0.990352
0.984661
0.974029
0.961237
0.948255
0.935342
0.922026
0.907615
0.891919
0.874603
0.855839
0.83511
0.812756
0.787902
0.761372
0.731764
0.700807
0.666112
0.994241
0.991007
0.992155
0.986199
0.973589
0.958552
0.943844
0.929733
0.915457
0.900134
0.883531
0.865392
0.845909
0.824641
0.801877
0.776858
0.750296
0.721011
0.690468
0.656664
0.993547
0.992163
0.995666
0.988907
0.97365
0.956073
0.93968
0.924532
0.909431
0.893292
0.875872
0.857011
0.836916
0.815211
0.792121
0.767003
0.740448
0.711493
0.681335
0.648345
0.993008
0.995085
1.00111
0.992577
0.973857
0.953563
0.935686
0.919738
0.903954
0.887087
0.86894
0.849464
0.828862
0.806813
0.783469
0.758306
0.731784
0.703158
0.673353
0.641099
0.992905
0.999276
1.00702
0.995668
0.973203
0.950568
0.93171
0.915275
0.898955
0.881466
0.862712
0.84275
0.821752
0.799443
0.775908
0.75074
0.724273
0.695965
0.666479
0.634884
0.993472
1.00273
1.00998
0.995356
0.97036
0.946703
0.927631
0.910996
0.894264
0.876314
0.857147
0.836865
0.815587
0.793097
0.769427
0.744286
0.717891
0.689882
0.66068
0.629666
0.991597
0.998987
1.00516
0.990003
0.96526
0.942538
0.923897
0.90702
0.889867
0.871632
0.852284
0.831855
0.810404
0.787795
0.764037
0.738947
0.712633
0.684894
0.65594
0.625418
0.987015
0.980505
0.981234
0.972647
0.956575
0.938678
0.921047
0.903581
0.885903
0.867551
0.848227
0.827787
0.806249
0.783572
0.759765
0.734732
0.708504
0.68099
0.652251
0.622117
0.996813
0.967095
0.94509
0.943262
0.943344
0.934495
0.918654
0.900708
0.882646
0.864301
0.845076
0.824682
0.80312
0.780422
0.7566
0.731624
0.705474
0.678136
0.649579
0.619733
0.999863
0.973077
0.947809
0.941302
0.939271
0.930826
0.916055
0.898718
0.880781
0.862358
0.843046
0.822617
0.801039
0.778342
0.754519
0.72958
0.703487
0.676271
0.64786
0.618234
0.988467
0.989078
0.98895
0.971857
0.94937
0.930166
0.913946
0.897799
0.880412
0.861806
0.842207
0.821647
0.800037
0.777334
0.753506
0.728578
0.702509
0.675354
0.647029
0.617564
0.751457
0.67907
0.608373
0.531408
0.449348
0.368209
0.290672
0.217083
0.148063
0.0850969
0.74206
0.667438
0.593222
0.520771
0.444781
0.368643
0.29612
0.227559
0.163739
0.105888
0.726134
0.655119
0.580475
0.511701
0.442192
0.371319
0.303127
0.238943
0.179373
0.124455
0.709154
0.643559
0.570528
0.503835
0.439406
0.373623
0.30941
0.248848
0.19272
0.140716
0.693041
0.632397
0.562255
0.497321
0.436766
0.375711
0.315329
0.257886
0.204691
0.155207
0.678194
0.621735
0.555126
0.492154
0.434517
0.377514
0.320754
0.266139
0.215434
0.168142
0.664632
0.611705
0.548788
0.488059
0.432751
0.379075
0.32563
0.273648
0.225105
0.17972
0.652328
0.602414
0.543085
0.484782
0.431482
0.380496
0.329972
0.280441
0.233827
0.190119
0.641236
0.593906
0.537929
0.482113
0.430647
0.381849
0.333825
0.28654
0.241681
0.199468
0.631292
0.586177
0.533263
0.479897
0.430158
0.383173
0.33725
0.291977
0.248726
0.20786
0.622432
0.579208
0.529047
0.478026
0.429927
0.384479
0.340301
0.296792
0.255002
0.21536
0.6146
0.572973
0.525252
0.476424
0.429875
0.385752
0.343018
0.301025
0.260544
0.222012
0.607745
0.567449
0.52186
0.475038
0.429936
0.386967
0.345422
0.304707
0.265381
0.227849
0.601832
0.56262
0.51886
0.473831
0.430051
0.388086
0.347516
0.307861
0.269532
0.232892
0.596837
0.558485
0.516253
0.47278
0.43017
0.389064
0.349284
0.310495
0.273013
0.237155
0.592751
0.555053
0.514048
0.471864
0.430246
0.389854
0.350703
0.312606
0.275826
0.240644
0.58957
0.552332
0.512243
0.47106
0.430231
0.390408
0.351745
0.31419
0.277977
0.243361
0.58727
0.550294
0.510801
0.470304
0.430046
0.390654
0.352368
0.315238
0.279484
0.245328
0.585822
0.548926
0.509698
0.469534
0.429584
0.390464
0.352452
0.315654
0.280281
0.246528
0.585236
0.548359
0.509151
0.468984
0.429035
0.389955
0.352041
0.315411
0.280249
0.246765
)
;

boundaryField
{
    bottom
    {
        type            symmetryPlane;
    }
    right
    {
        type            fixedValue;
        value           uniform 0;
    }
    top
    {
        type            symmetryPlane;
    }
    left
    {
        type            fixedValue;
        value           uniform 1;
    }
    cylinder
    {
        type            zeroGradient;
    }
    defaultFaces
    {
        type            empty;
    }
}


// ************************************************************************* //
