/*--------------------------------*- C++ -*----------------------------------*\
| =========                 |                                                 |
| \\      /  F ield         | OpenFOAM: The Open Source CFD Toolbox           |
|  \\    /   O peration     | Version:  4.1                                   |
|   \\  /    A nd           | Web:      www.OpenFOAM.org                      |
|    \\/     M anipulation  |                                                 |
\*---------------------------------------------------------------------------*/
FoamFile
{
    version     2.0;
    format      ascii;
    class       surfaceScalarField;
    location    "8.7";
    object      phi;
}
// * * * * * * * * * * * * * * * * * * * * * * * * * * * * * * * * * * * * * //

dimensions      [0 3 -1 0 0 0 0];

internalField   nonuniform List<scalar> 
3890
(
0.00024204
0.00266045
-0.00290249
0.00222344
0.00135741
-0.00333882
0.00682991
-0.00445108
-0.000155388
0.0145431
-0.0134734
0.00576017
0.0251641
-0.0242271
0.0136061
0.0378598
-0.0351712
0.0224755
0.0514897
-0.0450972
0.0314673
0.0651227
-0.0534243
0.0397913
0.0778951
-0.0600771
0.0473048
-0.0644502
0.0536247
0.0887206
0.000527276
0.00213318
0.00357124
-0.00168655
0.0100918
-0.0109716
0.02012
-0.0235016
0.0326073
-0.0367145
0.0460179
-0.0485818
0.0590085
-0.0580878
0.0707134
-0.0651291
0.0805492
-0.0699129
-0.0730543
0.0891532
0.000948155
0.00118502
0.00534889
-0.00608729
0.0139103
-0.019533
0.0256739
-0.0352652
0.038653
-0.0496935
0.051053
-0.0609818
0.0618453
-0.0688801
0.0706991
-0.0739829
0.0779028
-0.0771166
-0.0791348
0.0839833
0.00150107
-0.000316045
0.00744628
-0.0120325
0.0177134
-0.0298001
0.0300405
-0.0475923
0.0419896
-0.0616426
0.052178
-0.0711703
0.060289
-0.0769911
0.0666663
-0.0803602
0.0718837
-0.082334
-0.0836657
0.0764145
0.00217181
-0.00248785
0.00962421
-0.0194849
0.0207615
-0.0409374
0.0323419
-0.0591727
0.0422646
-0.0715653
0.0499598
-0.0788654
0.0557766
-0.082808
0.0603517
-0.0849352
0.0642634
-0.0862457
-0.0873534
0.0679511
0.00293155
-0.0054194
0.011524
-0.0280773
0.0224632
-0.0518767
0.0323783
-0.0690879
0.0400051
-0.079192
0.0455128
-0.0843731
0.0495842
-0.0868794
0.0528779
-0.0882289
0.0558622
-0.08923
-0.0902102
0.058719
0.00369716
-0.00911656
0.0127843
-0.0371645
0.0226313
-0.0617236
0.0305093
-0.0769659
0.036012
-0.0846947
0.0397566
-0.0881177
0.0425045
-0.0896273
0.0448125
-0.0905369
0.0469759
-0.0913935
-0.0923475
0.0491133
0.00434282
-0.0134594
0.0131873
-0.046009
0.0214316
-0.0699679
0.0272784
-0.0828126
0.0309646
-0.0883809
0.033306
-0.0904591
0.035
-0.0913213
0.0364546
-0.0919915
0.03785
-0.0927889
-0.0937247
0.0392272
0.0047432
-0.0182026
0.0127148
-0.0539806
0.019184
-0.0764371
0.0231823
-0.0868109
0.0253545
-0.0905531
0.0265489
-0.0916535
0.027336
-0.0921085
0.0279935
-0.092649
0.0286095
-0.0934049
-0.0943174
0.0292022
0.00482487
-0.0230274
0.0115403
-0.060696
0.0162357
-0.0811325
0.0186124
-0.0891877
0.0195163
-0.091457
0.0197264
-0.0918636
0.0196794
-0.0920614
0.0195515
-0.0925211
0.0193871
-0.0932404
0.0191857
-0.094116
-0.000955685
0.000955685
-0.00279739
0.00184171
-0.00506445
0.00226706
-0.00753334
0.00246889
-0.0100958
0.00256248
-0.0127047
0.00260885
-0.0153455
0.00264082
-0.0180229
0.00267742
-0.0207591
0.00273617
0.00284017
-0.0235992
-0.00084065
0.00179634
-0.00247941
0.00348048
-0.00449714
0.00428478
-0.00666781
0.00463956
-0.00887056
0.00476524
-0.0110413
0.00477957
-0.0131475
0.00474708
-0.0151779
0.00470781
-0.0171384
0.00469667
0.00477368
-0.019072
-0.000639184
0.00243552
-0.001923
0.00476429
-0.0034921
0.00585389
-0.00512801
0.00627546
-0.00669504
0.00633227
-0.00810384
0.00618837
-0.00929172
0.00593497
-0.0102184
0.00563454
-0.0108618
0.00534
0.00512872
-0.0112168
-0.000405173
0.00284069
-0.00125342
0.00561254
-0.00225867
0.00685915
-0.00321822
0.00723501
-0.00398833
0.00710238
-0.00445916
0.0066592
-0.00453619
0.006012
-0.00413708
0.00523542
-0.00319465
0.00439757
0.00364281
-0.00170875
-0.000193388
0.00303408
-0.000607423
0.00602657
-0.00101891
0.00727064
-0.00124414
0.00746024
-0.00113651
0.00699475
-0.000572378
0.00609507
0.000565582
0.00487404
0.00239555
0.00340546
0.00502579
0.00176733
5.31308e-06
0.00866329
-4.54227e-05
0.00307951
-8.63953e-05
0.00606755
6.30055e-05
0.00712124
0.000588734
0.00693451
0.00165165
0.00593184
0.00339978
0.00434693
0.00597656
0.00229727
0.00951627
-0.000134255
0.014057
-0.00277343
-0.00618605
0.0202484
2.32526e-05
0.00305625
0.000264583
0.00582622
0.000941177
0.00644464
0.00226633
0.00560935
0.00444949
0.00374869
0.00769307
0.00110335
0.0121677
-0.00217739
0.0180188
-0.00598535
0.0250597
-0.00981435
-0.015359
0.0342327
3.29503e-05
0.0030233
0.000512643
0.00534652
0.00174975
0.00520754
0.00404455
0.00331455
0.00768495
0.000108294
0.012934
-0.00414573
0.0199193
-0.00916261
0.0286439
-0.01471
0.038778
-0.0199484
-0.0274382
0.0508572
3.40569e-05
0.00298925
0.000803859
0.00457672
0.00278414
0.00322726
0.0064048
-0.000306111
0.012033
-0.00551986
0.0198247
-0.0119375
0.0297098
-0.0190478
0.0412969
-0.0262971
0.0543312
-0.0329826
-0.0409227
0.0678157
8.67528e-05
0.00132465
0.00439652
0.00985058
0.0179368
0.0284749
0.0408944
0.0543886
0.0687107
0.0814127
-0.0253313
0.0017321
-0.0269963
0.00166496
-0.0285684
0.00157209
-0.0300395
0.00147108
-0.0313989
0.0013594
-0.0326334
0.00123451
-0.0337272
0.0010938
-0.0346617
0.00093452
-0.0354155
0.000753817
-0.035964
0.000548532
-0.0362785
0.000314402
-0.036317
3.85876e-05
-0.036082
-0.000235022
-0.0355332
-0.000548777
-0.0346307
-0.00090255
-0.0333419
-0.00128875
-0.0316561
-0.00168586
-0.0295909
-0.00206514
-0.0271657
-0.00242521
-0.00274299
-0.0204979
0.00315805
-0.0218807
0.00304779
-0.0231867
0.00287803
-0.0244076
0.00269203
-0.0255332
0.00248493
-0.0265508
0.00225215
-0.027446
0.00198901
-0.0282023
0.00169079
-0.0288016
0.00135314
-0.0292245
0.000971395
-0.0294495
0.000539455
-0.0294396
2.86896e-05
-0.0292148
-0.000459799
-0.0287341
-0.0010295
-0.0279705
-0.0016662
-0.0268964
-0.00236277
-0.0254892
-0.00309314
-0.0237429
-0.00381144
-0.0216789
-0.00448914
-0.005083
-0.0121142
0.00405541
-0.0129823
0.00391592
-0.0138117
0.00370739
-0.0145853
0.00346563
-0.015292
0.00319167
-0.015921
0.00288114
-0.0164584
0.0025264
-0.0168883
0.0021207
-0.0171948
0.0016596
-0.0173624
0.00113903
-0.0173748
0.000551833
-0.0172419
-0.000104162
-0.0169334
-0.000768311
-0.016449
-0.0015139
-0.0157816
-0.00233359
-0.0149158
-0.00322857
-0.0138407
-0.00416827
-0.0125272
-0.00512491
-0.0109762
-0.00604015
-0.00683588
-0.0018349
0.00418156
-0.00208048
0.00416151
-0.0023201
0.003947
-0.00252561
0.00367113
-0.0026946
0.00336066
-0.00282156
0.00300811
-0.00289491
0.00259975
-0.00289735
0.00212314
-0.00281258
0.00157483
-0.00262797
0.000954419
-0.00232074
0.000244598
-0.00193372
-0.000491177
-0.00141626
-0.00128577
-0.000777289
-0.00215287
-2.85769e-05
-0.0030823
0.000807941
-0.00406508
0.00174426
-0.00510459
0.00279237
-0.00617302
0.00395936
-0.00720714
-0.00815947
0.00915963
0.00368522
0.0095659
0.00375523
0.00993559
0.00357732
0.010318
0.00328868
0.0107174
0.00296126
0.0111353
0.00259028
0.0115776
0.00215746
0.0120608
0.00163987
0.012604
0.00103166
0.0132249
0.000333524
0.0138861
-0.000416591
0.0146232
-0.00122831
0.0154472
-0.00210976
0.0163487
-0.00305435
0.0173184
-0.00405201
0.0183463
-0.005093
0.0193968
-0.00615511
0.0204582
-0.00723441
0.0214858
-0.00823469
-0.00930701
0.0212186
0.00271499
0.0221048
0.00286901
0.022963
0.00271914
0.0238403
0.00241145
0.024733
0.00206849
0.0256393
0.00168396
0.0265656
0.00123122
0.027525
0.000680439
0.0285532
3.43581e-06
0.0295772
-0.000690394
0.0306512
-0.00149064
0.0317827
-0.00235983
0.0329674
-0.0032944
0.0341977
-0.00428469
0.035461
-0.00531531
0.0367413
-0.00637328
0.0380057
-0.00741949
0.0392397
-0.00846841
0.040371
-0.00936601
-0.0104218
0.0353357
0.00161198
0.036425
0.00177965
0.0375402
0.001604
0.0387071
0.00124455
0.0399092
0.000866322
0.0411478
0.000445392
0.0424396
-6.05658e-05
0.0437748
-0.000654776
0.0451173
-0.00133903
0.0465235
-0.00209659
0.0479665
-0.00293368
0.0494457
-0.00383903
0.050955
-0.00480374
0.052482
-0.00581168
0.0540111
-0.00684435
0.0555226
-0.0078848
0.0569869
-0.00888375
0.0583862
-0.00986775
0.05967
-0.0106498
-0.0115926
0.0517621
0.000707096
0.0527876
0.000754195
0.0539438
0.000447819
0.0551713
1.6982e-05
0.0564829
-0.000445254
0.0578671
-0.000938758
0.0593248
-0.00151829
0.0608472
-0.00217723
0.0624204
-0.00291219
0.0640414
-0.00371764
0.0656996
-0.00459187
0.0673826
-0.00552198
0.0690774
-0.00649857
0.0707658
-0.00750005
0.0724295
-0.00850805
0.0740444
-0.00949969
0.0755882
-0.0104276
0.0770325
-0.011312
0.0783708
-0.0119882
-0.012767
0.0685302
-7.44272e-06
0.0695414
-0.000257059
0.0707181
-0.000728868
0.0719652
-0.00123004
0.0732889
-0.00176897
0.0747147
-0.00236457
0.0762223
-0.00302595
0.0777918
-0.00374664
0.0794089
-0.00452934
0.0810625
-0.00537127
0.08274
-0.00626935
0.0844262
-0.00720816
0.0861049
-0.00817726
0.0877576
-0.00915278
0.0893657
-0.0101161
0.0909074
-0.0110414
0.0923674
-0.0118876
0.093715
-0.0126596
0.0949667
-0.0132398
-0.0138503
0.0825162
-0.00111094
0.0838824
-0.0016232
0.0852063
-0.00205281
0.0865374
-0.00256115
0.0879079
-0.00313947
0.0893195
-0.00377618
0.0907663
-0.00447271
0.0922443
-0.00522468
0.0937481
-0.00603312
0.0952704
-0.0068936
0.0968011
-0.00779998
0.09833
-0.00873709
0.0998426
-0.00968984
0.101328
-0.0106378
0.102767
-0.0115557
0.104152
-0.0124266
0.105467
-0.0132023
0.106704
-0.0138967
0.107861
-0.0143966
-0.0148407
0.111395
-0.000494407
-0.112012
0.110878
-0.00110623
0.11053
-0.00170461
0.110314
-0.00234547
0.110217
-0.00304207
0.110215
-0.00377404
0.110276
-0.00453423
0.110374
-0.00532268
0.110484
-0.00614226
0.11058
-0.00699033
0.110641
-0.00786038
0.110645
-0.00874141
0.110573
-0.00961758
0.110411
-0.010476
0.110144
-0.0112887
0.109769
-0.0120515
0.109278
-0.0127111
0.10868
-0.0132991
0.107979
-0.0136959
-0.0140149
0.118882
-0.000293081
-0.119083
0.118721
-0.000945759
0.118597
-0.00158037
0.118503
-0.00225173
0.118423
-0.00296219
0.11835
-0.00370055
0.118274
-0.00445877
0.118186
-0.00523471
0.118072
-0.00602804
0.117918
-0.00683641
0.11771
-0.00765197
0.117436
-0.00846738
0.117083
-0.00926537
0.116647
-0.0100397
0.116119
-0.0107602
0.1155
-0.0114325
0.11479
-0.0120011
0.113997
-0.0125068
0.113137
-0.0128352
-0.0131322
0.123312
-9.56036e-05
-0.12351
0.123198
-0.000831412
0.123138
-0.00152018
0.12309
-0.00220358
0.12303
-0.00290259
0.122949
-0.0036196
0.12284
-0.00434985
0.122696
-0.00509027
0.122506
-0.00583795
0.122261
-0.00659138
0.121951
-0.00734207
0.12157
-0.00808621
0.12111
-0.00880565
0.12057
-0.00950001
0.119947
-0.0101371
0.119246
-0.0107317
0.11847
-0.0112246
0.117633
-0.0116702
0.116751
-0.0119525
-0.0122219
0.126172
-5.65895e-06
-0.126262
0.126113
-0.000772323
0.126077
-0.00148434
0.126039
-0.00216598
0.125981
-0.0028442
0.125891
-0.00353004
0.125764
-0.00422254
0.125593
-0.0049192
0.125371
-0.00561559
0.12509
-0.00631076
0.124744
-0.00699614
0.124329
-0.00767073
0.12384
-0.0083165
0.123277
-0.00893746
0.122641
-0.00950087
0.121937
-0.010028
0.121171
-0.0104582
0.120356
-0.010855
0.119502
-0.0110986
-0.0113464
0.128336
-1.34397e-05
-0.128328
0.128326
-0.000762333
0.128308
-0.00146668
0.128278
-0.00213523
0.12822
-0.00278703
0.128127
-0.00343633
0.12799
-0.00408623
0.127807
-0.00473575
0.127571
-0.00537986
0.127278
-0.00601783
0.126923
-0.0066412
0.126503
-0.00725089
0.126017
-0.00782975
0.125464
-0.00838457
0.124847
-0.00888365
0.12417
-0.00935169
0.123441
-0.00972928
0.122669
-0.010083
0.121866
-0.0102951
-0.0105241
0.130361
-7.04705e-05
-0.130304
0.130376
-0.000777235
0.130368
-0.00145845
0.130336
-0.00210391
0.130274
-0.00272466
0.130173
-0.00333502
0.130027
-0.00394073
0.129834
-0.0045425
0.129589
-0.00513544
0.12929
-0.00571887
0.128934
-0.00628466
0.128518
-0.00683483
0.128042
-0.00735356
0.127506
-0.00784919
0.126915
-0.00829197
0.126271
-0.00870781
0.125582
-0.00904034
0.124854
-0.00935551
0.124101
-0.00954155
-0.00975074
0.132481
-0.000142819
-0.132409
0.132507
-0.000803337
0.132498
-0.00144959
0.132458
-0.00206312
0.132382
-0.00264892
0.132266
-0.00321931
0.132106
-0.00378093
0.1319
-0.00433574
0.131644
-0.00487947
0.131336
-0.00541149
0.130976
-0.00592415
0.130561
-0.00642
0.130092
-0.00688473
0.12957
-0.00732734
0.128999
-0.00772053
0.128381
-0.00808994
0.127724
-0.00838337
0.127032
-0.00866373
0.126318
-0.00882737
-0.00901618
0.134741
-0.000218797
-0.134665
0.134766
-0.000828714
0.134748
-0.00143159
0.134692
-0.00200678
0.134598
-0.00255448
0.134462
-0.00308415
0.134284
-0.00360217
0.134059
-0.0041112
0.133787
-0.00460772
0.133467
-0.00509124
0.133098
-0.0055547
0.132679
-0.00600079
0.132211
-0.00641673
0.131695
-0.00681157
0.131135
-0.00716071
0.130534
-0.00748852
0.129898
-0.00774763
0.12923
-0.0079963
0.128543
-0.00814031
-0.00830898
0.137093
-0.000287752
-0.137024
0.137109
-0.000844025
0.137076
-0.0013992
0.137001
-0.00193193
0.136886
-0.00243899
0.136729
-0.00292709
0.136529
-0.00340185
0.136283
-0.00386617
0.135993
-0.00431723
0.135656
-0.00475468
0.135274
-0.00517215
0.134845
-0.00557224
0.134372
-0.00594365
0.133856
-0.00629505
0.1333
-0.0066046
0.132706
-0.00689482
0.132082
-0.00712338
0.131428
-0.00734308
0.130758
-0.00746969
-0.00761893
0.139467
-0.000341002
-0.139413
0.139466
-0.000843853
0.139417
-0.00134957
0.139322
-0.00183725
0.139185
-0.00230167
0.139005
-0.00274735
0.138782
-0.00317899
0.138515
-0.00359944
0.138205
-0.00400646
0.13785
-0.00439983
0.137452
-0.00477387
0.13701
-0.00513097
0.136528
-0.00546125
0.136006
-0.00577272
0.135447
-0.00604625
0.134855
-0.00630218
0.134234
-0.00650319
0.133588
-0.0066963
0.132925
-0.00680729
-0.00693809
0.141795
-0.000374998
-0.141761
0.141776
-0.000825418
0.141708
-0.00128103
0.141592
-0.0017221
0.141433
-0.00214245
0.141231
-0.00254499
0.140985
-0.0029336
0.140697
-0.00331086
0.140365
-0.00367501
0.139992
-0.00402591
0.139576
-0.00435855
0.13912
-0.00467508
0.138626
-0.00496692
0.138095
-0.0052413
0.13753
-0.00548164
0.136934
-0.00570596
0.136312
-0.00588182
0.135666
-0.00605041
0.135006
-0.0061472
-0.00626074
0.144022
-0.000388706
-0.144008
0.143984
-0.000787409
0.143895
-0.0011927
0.14376
-0.00158633
0.143579
-0.00196173
0.143355
-0.00232069
0.143087
-0.00266635
0.142777
-0.00300101
0.142426
-0.00332327
0.142033
-0.00363299
0.1416
-0.00392588
0.141129
-0.00420376
0.140621
-0.00445932
0.140079
-0.00469888
0.139505
-0.0049083
0.138903
-0.00510323
0.138277
-0.00525587
0.137628
-0.00540171
0.136966
-0.00548546
-0.00558292
0.146101
-0.000381954
-0.146108
0.146043
-0.000729687
0.145935
-0.00108476
0.145779
-0.00143058
0.145578
-0.00176056
0.145333
-0.00207569
0.145045
-0.00237855
0.144716
-0.00267111
0.144345
-0.00295227
0.143933
-0.0032219
0.143484
-0.00347635
0.142997
-0.00371713
0.142476
-0.00393812
0.141922
-0.00414469
0.141339
-0.00432499
0.140728
-0.00449234
0.140095
-0.0046233
0.139441
-0.00474789
0.138775
-0.00481955
-0.00490208
0.147991
-0.000355856
-0.148017
0.147915
-0.000653579
0.147789
-0.000958721
0.147615
-0.00125655
0.147395
-0.00154085
0.147132
-0.00181203
0.146825
-0.00207221
0.146477
-0.00232306
0.146089
-0.00256375
0.145661
-0.00279412
0.145196
-0.00301115
0.144695
-0.00321605
0.14416
-0.00340378
0.143595
-0.00357881
0.143001
-0.00373141
0.142381
-0.00387261
0.141741
-0.00398312
0.141081
-0.00408774
0.140409
-0.00414804
-0.0042167
0.149659
-0.000313444
-0.149701
0.149568
-0.000562033
0.149426
-0.000817456
0.149237
-0.00106712
0.149001
-0.00130543
0.148722
-0.00153248
0.1484
-0.00175
0.148036
-0.00195938
0.147632
-0.00216
0.14719
-0.0023517
0.146711
-0.00253203
0.146197
-0.00270194
0.14565
-0.00285739
0.145073
-0.00300198
0.14447
-0.00312793
0.143841
-0.00324413
0.143193
-0.00333509
0.142526
-0.00342077
0.141849
-0.0034703
-0.00352599
0.151079
-0.000259224
-0.151133
0.150976
-0.000459137
0.150823
-0.00066478
0.150622
-0.000865877
0.150375
-0.00105773
0.150082
-0.00124031
0.149747
-0.001415
0.149371
-0.00158294
0.148955
-0.00174364
0.1485
-0.00189699
0.148009
-0.00204105
0.147483
-0.00217656
0.146926
-0.00230037
0.14634
-0.00241532
0.145727
-0.00251536
0.14509
-0.00260741
0.144435
-0.00267949
0.143761
-0.00274705
0.143077
-0.00278623
-0.00282972
0.152236
-0.000197716
-0.152298
0.152126
-0.000348946
0.151966
-0.000504424
0.151756
-0.00065631
0.151499
-0.000801037
0.151198
-0.000938662
0.150853
-0.00107017
0.150466
-0.00119649
0.15004
-0.0013172
0.149575
-0.00143231
0.149075
-0.00154026
0.14854
-0.00164174
0.147974
-0.00173428
0.147379
-0.00182014
0.146758
-0.00189473
0.146114
-0.0019633
0.145451
-0.00201693
0.144771
-0.00206703
0.144081
-0.00209617
-0.00212808
0.153123
-0.000131972
-0.153188
0.153008
-0.000234385
0.152843
-0.000339082
0.152627
-0.000440951
0.152364
-0.000537841
0.152055
-0.000629973
0.151703
-0.000717892
0.151309
-0.000802359
0.150875
-0.000882911
0.150402
-0.000959769
0.149894
-0.00103165
0.149351
-0.00109931
0.148778
-0.00116076
0.148175
-0.00121794
0.147548
-0.00126734
0.146898
-0.00131295
0.146229
-0.00134838
0.145544
-0.00138156
0.144848
-0.0014008
-0.00142173
0.153728
-6.37142e-05
-0.153796
0.153611
-0.000117515
0.153442
-0.000170536
0.153223
-0.000221631
0.152955
-0.000270086
0.152641
-0.000316282
0.152284
-0.00036026
0.151884
-0.000402693
0.151444
-0.000442915
0.150966
-0.000481548
0.150452
-0.00051727
0.149904
-0.000551348
0.149325
-0.000581676
0.148717
-0.000610661
0.148085
-0.000634726
0.14743
-0.000658174
0.146756
-0.000674924
0.146067
-0.000692546
0.145367
-0.000700799
-0.000712173
0.154036
-0.154099
0.153918
0.153748
0.153526
0.153256
0.15294
0.152579
0.152177
0.151734
0.151252
0.150735
0.150184
0.149602
0.148991
0.148357
0.147698
0.147023
0.146331
0.14563
0.0967922
0.0175592
-0.0951658
0.0986174
0.0273771
0.100675
0.0371695
0.102921
0.0468672
0.105419
0.0562209
0.108091
0.0652791
0.110632
0.0738733
0.113449
0.0811668
0.113199
0.0894026
0.0899082
0.0979526
0.0160655
-0.0964589
0.0996935
0.0256362
0.101722
0.0351408
0.104039
0.0445507
0.106545
0.0537145
0.109542
0.0622822
0.112252
0.0711637
0.115872
0.0775463
0.118444
0.0868311
0.089269
0.099327
0.014719
-0.0979805
0.10098
0.0239837
0.102909
0.0332115
0.105249
0.042211
0.107716
0.0512473
0.110803
0.0591952
0.113811
0.0681555
0.117289
0.0740682
0.121172
0.0829486
0.0869307
0.100836
0.0134974
-0.0996145
0.102422
0.0223978
0.104274
0.0313598
0.106584
0.0399005
0.109082
0.0487498
0.112058
0.056219
0.11534
0.0648734
0.118603
0.0708053
0.122797
0.0787547
0.0834656
0.102432
0.0123705
-0.101305
0.10396
0.0208705
0.105793
0.0295269
0.10805
0.0376435
0.110634
0.0461654
0.113497
0.0533564
0.116915
0.0614554
0.120225
0.0674948
0.124359
0.0746211
0.079496
0.104076
0.0113117
-0.103018
0.105547
0.0194
0.107396
0.0276773
0.109619
0.0354214
0.112287
0.0434966
0.115155
0.050489
0.118617
0.0579934
0.122107
0.0640048
0.126155
0.0705731
0.0753468
0.10573
0.0103058
-0.104724
0.107154
0.0179766
0.109024
0.0258076
0.111252
0.0331927
0.11398
0.0407685
0.116945
0.0475245
0.120433
0.0545048
0.124092
0.0603458
0.128154
0.0665116
0.071092
0.107362
0.00934817
-0.106405
0.108755
0.0165841
0.110636
0.0239259
0.112905
0.030924
0.115679
0.0379947
0.118765
0.0444385
0.12231
0.0509597
0.126117
0.056539
0.130287
0.0623409
0.0667144
0.108947
0.00843777
-0.108036
0.110322
0.0152084
0.112212
0.0220367
0.114534
0.0286018
0.117357
0.0351713
0.120559
0.0412366
0.124202
0.047317
0.128158
0.0525834
0.132488
0.0580104
0.0621781
0.110464
0.00757201
-0.109598
0.111831
0.0138413
0.11373
0.0201378
0.116106
0.0262253
0.118991
0.0322868
0.122302
0.0379255
0.126068
0.0435512
0.130178
0.048473
0.134687
0.0535018
0.0574515
0.111894
0.00674584
-0.111068
0.113256
0.0124789
0.11517
0.0182243
0.117598
0.0237968
0.120553
0.0293326
0.123969
0.034509
0.127865
0.0396554
0.132132
0.0442054
0.136824
0.0488103
0.0525148
0.113216
0.00595264
-0.112423
0.114576
0.0111186
0.116509
0.0162912
0.118988
0.0213181
0.122015
0.0263056
0.125533
0.0309906
0.129556
0.0356324
0.133981
0.0397811
0.138854
0.0439369
0.0473609
0.114408
0.00518494
-0.113641
0.115769
0.00975742
0.117726
0.0143351
0.120253
0.0187904
0.123352
0.023207
0.126968
0.0273739
0.131113
0.0314877
0.135691
0.0352035
0.14074
0.0388879
0.041993
0.115451
0.00443479
-0.1147
0.116817
0.00839151
0.118798
0.0123536
0.121373
0.016215
0.124541
0.0200398
0.128251
0.0236637
0.13251
0.0272286
0.137233
0.0304806
0.142446
0.0336744
0.036422
0.116329
0.00369401
-0.115588
0.117703
0.0070168
0.119712
0.0103453
0.122333
0.0135935
0.125564
0.0168087
0.129361
0.0198669
0.133725
0.022865
0.138581
0.0256245
0.143944
0.0283112
0.0306645
0.11704
0.00295541
-0.116301
0.118426
0.0056301
0.120461
0.00831053
0.123125
0.0109295
0.126414
0.0135201
0.130288
0.0159927
0.134744
0.0184094
0.139717
0.0206509
0.145212
0.0228168
0.0247429
0.117595
0.00221486
-0.116855
0.118995
0.00423091
0.121053
0.00625189
0.123754
0.00822873
0.127091
0.010183
0.13103
0.0120535
0.135563
0.0138769
0.140635
0.0155788
0.146239
0.017213
0.0186839
0.118015
0.00147337
-0.117273
0.119423
0.0028224
0.1215
0.00417531
0.124229
0.0054999
0.127603
0.00680868
0.131593
0.00806386
0.136185
0.00928498
0.141333
0.0104298
0.147022
0.0115242
0.0125178
0.118307
0.000736383
-0.11757
0.119719
0.00141004
0.121805
0.00208883
0.124552
0.00275352
0.12795
0.00341003
0.131974
0.00404025
0.136606
0.00465267
0.141808
0.00522819
0.147555
0.00577685
0.00627721
0.118462
-0.117725
0.119872
0.121961
0.124714
0.128124
0.132165
0.136817
0.142045
0.147822
0.0463955
0.060484
-0.0547601
-0.0521194
0.0403911
0.0601434
-0.054139
0.0345587
0.0602154
-0.0543831
0.0288612
0.0607948
-0.0550973
0.0232347
0.0618061
-0.0561796
0.0176447
0.0632861
-0.057696
0.0120878
0.0652334
-0.0596765
0.00672564
0.0665838
-0.0612216
0.00220304
0.0621091
-0.0575865
0.0372409
-0.0350379
0.0431121
0.0663202
-0.0489484
0.0373547
0.0659008
0.0317483
0.0658219
0.0263061
0.0662369
0.0209685
0.0671437
0.0156845
0.0685701
0.0104684
0.0704495
0.00554439
0.0715078
0.00161588
0.0660376
0.0388568
0.0392
0.0717795
-0.0446592
0.0337587
0.071342
0.0284321
0.0711485
0.0232701
0.0713989
0.018245
0.0721689
0.0133123
0.0735028
0.00851051
0.0752513
0.0041269
0.0758914
0.000909553
0.0692549
0.0397664
0.0343689
0.0768015
-0.0393909
0.0293786
0.0763323
0.0244611
0.0760661
0.0196826
0.0761774
0.0150469
0.0768045
0.010531
0.0780187
0.00620765
0.0795746
0.00247083
0.0796282
2.70373e-05
0.0716987
0.0397934
0.0286863
0.0813467
-0.0332315
0.0241987
0.0808199
0.0197868
0.0804779
0.0154978
0.0804665
0.0113448
0.0809576
0.00733213
0.0820313
0.00356934
0.0833374
0.000509412
0.0826882
-0.00073417
0.0729423
0.0390592
0.0221673
0.0853307
-0.0261512
0.0182627
0.0847244
0.0144404
0.0843002
0.0107296
0.0841773
0.00714983
0.0845374
0.00374003
0.0854411
0.000698652
0.0863788
-0.00140486
0.0847917
-0.00160166
0.0731391
0.0374576
0.0149155
0.088652
-0.0182368
0.0116678
0.0879721
0.00850144
0.0874666
0.00543592
0.0872428
0.00250719
0.0874661
-0.000225255
0.0881736
-0.00245369
0.0886072
-0.00348451
0.0858225
-0.00247993
0.0721345
0.0349776
0.0070184
0.091243
-0.00960947
0.00448122
0.0905093
0.00204354
0.0899043
-0.000301286
0.0895876
-0.00255411
0.0897189
-0.00453217
0.0901516
-0.00583586
0.0899109
-0.00568081
0.0856675
-0.00332093
0.0697746
0.0316567
-0.00142142
0.093177
-0.000512583
-0.00318983
0.0922777
-0.00488575
0.0916002
-0.00651154
0.0912134
-0.00798573
0.0911931
-0.00911159
0.0912775
-0.00935882
0.0901582
-0.00785048
0.0841591
-0.00405053
0.0659747
0.0276062
-0.0102728
0.00933381
-0.0112355
-0.0121565
-0.0130045
-0.0136749
-0.0138545
-0.012884
-0.00985738
-0.00457874
0.0468672
0.00441766
-0.0512849
0.0422862
0.00458104
0.0375153
0.00477083
0.032531
0.00498437
0.027301
0.00522996
0.0217822
0.00551875
0.0159261
0.00585615
0.00975941
0.00616668
0.0037795
0.00597992
0.0037795
0.0472142
0.00893426
-0.0517308
0.0425471
0.00924818
0.0377034
0.00961449
0.0326595
0.0100283
0.0273828
0.0105066
0.0218295
0.0110721
0.0159482
0.0117374
0.00976352
0.0123514
0.00378471
0.0119587
0.0075642
0.0478526
0.0136377
-0.0525561
0.043023
0.0140778
0.0380418
0.0145957
0.0328848
0.0151853
0.0275189
0.0158725
0.0218991
0.0166919
0.0159736
0.0176629
0.00976609
0.0185589
0.00377828
0.0179465
0.0113425
0.0486755
0.0185904
-0.0536282
0.0436286
0.0191247
0.0384628
0.0197615
0.0331543
0.0204938
0.0276693
0.0213575
0.0219624
0.0223989
0.0159807
0.0236446
0.00974716
0.0247924
0.0037601
0.0239336
0.0151026
0.0495381
0.0238253
-0.054773
0.0442429
0.0244199
0.0388664
0.0251379
0.0333873
0.025973
0.0277719
0.026973
0.0219725
0.0281983
0.0159354
0.0296816
0.00968495
0.0310429
0.00371835
0.0299002
0.0188209
0.0502917
0.0293294
-0.0557958
0.0447517
0.0299599
0.0391611
0.0307285
0.0335084
0.0316256
0.0277636
0.0327178
0.0218783
0.0340836
0.0157986
0.0357613
0.00955306
0.0372884
0.00364029
0.035813
0.0224612
0.0507182
0.0350912
-0.05648
0.0449407
0.0357375
0.0391614
0.0365078
0.0333736
0.0374134
0.027537
0.0385544
0.0216001
0.0400206
0.0155131
0.0418483
0.00931565
0.0434858
0.0035129
0.0416157
0.0259741
0.0508607
0.0410453
-0.0568148
0.0448503
0.0417479
0.0388995
0.0424586
0.0329974
0.0433155
0.0270875
0.0444642
0.0211201
0.045988
0.0150551
0.0479132
0.00895017
0.0495908
0.00332971
0.0472362
0.0293038
0.0500421
0.0473899
-0.0563867
0.0438711
0.0479189
0.037934
0.0483956
0.032069
0.0491806
0.0262029
0.0503303
0.0203041
0.0518869
0.0143453
0.053872
0.00840949
0.0555266
0.00305383
0.0525919
0.0323576
0.0489571
-0.0563273
0.042737
0.0367496
0.0308329
0.0249835
0.0191743
0.0133699
0.00767487
0.00268025
0.0557576
-0.000203582
0.0559589
-0.000201276
0.0561576
-0.00019866
0.0563468
-0.000189176
0.05652
-0.000173261
0.0566716
-0.000151537
0.0567953
-0.000123734
0.0568843
-8.9003e-05
0.0569301
-4.57806e-05
0.0569224
7.65894e-06
0.0568609
6.14766e-05
0.0567328
0.000128152
0.0565252
0.000207543
0.0562241
0.000301182
0.0558129
0.000411198
0.0552723
0.000540557
0.0545804
0.000691923
0.0537086
0.000871751
0.0526322
0.00107647
0.00134731
0.0564729
-0.000407339
0.0566708
-0.000399239
0.0568622
-0.000390027
0.0570423
-0.000369255
0.0572059
-0.000336835
0.0573473
-0.000292983
0.0574604
-0.000236828
0.057538
-0.000166621
0.0575713
-7.90881e-05
0.0575532
2.57969e-05
0.0574793
0.000135373
0.0573376
0.000269813
0.0571155
0.000429671
0.0567986
0.000618126
0.0563704
0.000839395
0.0558114
0.00109955
0.0550996
0.00140366
0.0542059
0.00176548
0.0531065
0.00217586
0.00272298
0.0578802
-0.000590185
0.0580582
-0.000577257
0.05823
-0.000561866
0.05839
-0.000529255
0.0585326
-0.000479391
0.0586519
-0.000412347
0.0587418
-0.000326687
0.0587947
-0.000219554
0.0588016
-8.59231e-05
0.0587602
6.7166e-05
0.0586598
0.000235721
0.0584895
0.000440167
0.0582365
0.000682626
0.0578865
0.000968189
0.0574228
0.00130306
0.0568256
0.0016968
0.0560731
0.00215614
0.0551344
0.00270421
0.053989
0.00332127
0.00415586
0.0599208
-0.000736906
0.0600625
-0.000718908
0.0601976
-0.000697008
0.0603205
-0.000652185
0.0604252
-0.000584097
0.0605057
-0.000492765
0.0605554
-0.00037638
0.0605663
-0.000230458
0.0605271
-4.67578e-05
0.0604452
0.000149041
0.0603002
0.0003807
0.060082
0.000658412
0.0597783
0.000986371
0.0593742
0.00137223
0.0588534
0.00182386
0.0581949
0.00235529
0.057378
0.00297307
0.0563681
0.00371406
0.0551512
0.0045382
0.00567887
0.0625153
-0.000825767
0.0625989
-0.000802582
0.0626751
-0.000773183
0.0627382
-0.000715265
0.0627818
-0.000627741
0.0627997
-0.000510595
0.0627842
-0.000360876
0.0627275
-0.000173842
0.0626275
5.32482e-05
0.0624796
0.000297012
0.062265
0.000595288
0.0619737
0.000949646
0.0615939
0.00136623
0.06111
0.00185615
0.060506
0.00242788
0.0597591
0.00310212
0.0588508
0.00388134
0.0577404
0.0048245
0.056424
0.00585461
0.00732985
0.065569
-0.000829899
0.0655674
-0.00080097
0.065556
-0.000761754
0.0655297
-0.000689025
0.0654826
-0.000580618
0.0654083
-0.000436302
0.0653002
-0.000252709
0.065139
-1.26945e-05
0.064957
0.000235248
0.0647102
0.000543867
0.0643948
0.000910661
0.064
0.00134442
0.0635139
0.00185238
0.0629195
0.00245053
0.0622021
0.00314527
0.0613354
0.00396886
0.0603051
0.0049116
0.0590604
0.00606922
0.0576131
0.00730188
0.00914717
0.0689849
-0.000715622
0.0688638
-0.000679919
0.068729
-0.000626908
0.0685763
-0.000536272
0.0684018
-0.000406176
0.0681984
-0.000232905
0.0679436
2.13281e-06
0.0676837
0.00024714
0.0673622
0.000556756
0.0669792
0.000926868
0.066527
0.00136291
0.0659925
0.0018789
0.0653651
0.00247975
0.0646253
0.00319039
0.0637621
0.00400847
0.0627424
0.00498852
0.061562
0.00609203
0.06015
0.00748117
0.0585358
0.00891616
0.0112029
0.0726734
-0.000424814
0.0723895
-0.000395995
0.0720874
-0.000324803
0.0717636
-0.000212425
0.0714089
-5.14968e-05
0.07103
0.000145955
0.0706395
0.000392661
0.0701931
0.000693593
0.0696959
0.00105394
0.0691375
0.00148521
0.0685098
0.00199063
0.0677972
0.0025915
0.0669914
0.00328552
0.0660666
0.00411526
0.0650194
0.00505565
0.0638041
0.00620379
0.0624399
0.00745625
0.0608313
0.00908974
0.059046
0.0107015
0.0134341
0.0765561
5.68027e-05
0.0760532
0.000106888
0.0755273
0.000201172
0.0749822
0.000332674
0.0744233
0.000507315
0.0738379
0.000731417
0.0732191
0.00101147
0.0725566
0.00135602
0.0718446
0.00176594
0.0710713
0.00225855
0.0702301
0.00283183
0.0693026
0.00351906
0.0682859
0.00430215
0.0671444
0.00525678
0.0658883
0.00631174
0.0644412
0.00765089
0.0628583
0.00903919
0.0609441
0.0110039
0.0589371
0.0127085
0.0159845
0.0805903
0.000883787
0.0797889
0.00090829
0.0789925
0.000997517
0.0781858
0.00113937
0.077363
0.00133018
0.0765163
0.0015781
0.0756398
0.00188798
0.0747235
0.00227229
0.0737602
0.00272921
0.0727358
0.00328296
0.0716461
0.00392152
0.0704682
0.004697
0.0692094
0.00556094
0.0678268
0.00663934
0.0663681
0.00777052
0.0647238
0.0092951
0.063071
0.010692
0.0610608
0.0130141
0.0592467
0.0145226
0.0189039
0.0783122
0.000843813
0.0783059
0.000914524
0.0782878
0.00101563
0.0782708
0.00115635
0.0782589
0.00134209
0.0782517
0.00158531
0.0782513
0.00188833
0.0782577
0.0022659
0.0782762
0.00271071
0.078306
0.00325324
0.0783613
0.00386614
0.0784372
0.00462117
0.0785692
0.00542889
0.0787353
0.00647327
0.079025
0.00748077
0.0793602
0.00895988
0.0799733
0.010079
0.080697
0.0122904
0.0822194
0.0130002
0.0163562
0.0847672
0.0824264
0.000860437
0.0824036
0.000937321
0.0823844