/*--------------------------------*- C++ -*----------------------------------*\
| =========                 |                                                 |
| \\      /  F ield         | OpenFOAM: The Open Source CFD Toolbox           |
|  \\    /   O peration     | Version:  4.1                                   |
|   \\  /    A nd           | Web:      www.OpenFOAM.org                      |
|    \\/     M anipulation  |                                                 |
\*---------------------------------------------------------------------------*/
FoamFile
{
    version     2.0;
    format      ascii;
    class       volScalarField;
    location    "5.3";
    object      p;
}
// * * * * * * * * * * * * * * * * * * * * * * * * * * * * * * * * * * * * * //

dimensions      [0 2 -2 0 0 0 0];

internalField   nonuniform List<scalar> 
2000
(
-0.325679
-0.313703
-0.303904
-0.294612
-0.284626
-0.27258
-0.257473
-0.239491
-0.217621
-0.196318
-0.346874
-0.331843
-0.319743
-0.307383
-0.2929
-0.275297
-0.254525
-0.231362
-0.206371
-0.182708
-0.371366
-0.352807
-0.337779
-0.321057
-0.30044
-0.27605
-0.249088
-0.221069
-0.192961
-0.166543
-0.398626
-0.376117
-0.3572
-0.334348
-0.30592
-0.273881
-0.240706
-0.208249
-0.177463
-0.149815
-0.427595
-0.400739
-0.376514
-0.34548
-0.307852
-0.267834
-0.228747
-0.192307
-0.159214
-0.129878
-0.456441
-0.424992
-0.39351
-0.352325
-0.304736
-0.256964
-0.212533
-0.172663
-0.137499
-0.106672
-0.482561
-0.44647
-0.405503
-0.352713
-0.295189
-0.240369
-0.191334
-0.148555
-0.111559
-0.0792317
-0.502801
-0.462067
-0.409763
-0.344758
-0.278036
-0.217217
-0.164437
-0.119326
-0.0807556
-0.0471373
-0.513878
-0.4684
-0.403763
-0.326956
-0.252319
-0.186753
-0.131175
-0.0843788
-0.044637
-0.0101195
-0.512799
-0.462386
-0.385335
-0.298167
-0.217306
-0.148343
-0.0909487
-0.0431955
-0.00288785
0.0318362
-0.216239
-0.221607
-0.223093
-0.223152
-0.221915
-0.218923
-0.213872
-0.206644
-0.197382
-0.186644
-0.220057
-0.224912
-0.226295
-0.226477
-0.225483
-0.222802
-0.218073
-0.211096
-0.201874
-0.191096
-0.227106
-0.230924
-0.232081
-0.232389
-0.23174
-0.229549
-0.225353
-0.21885
-0.209655
-0.197531
-0.236322
-0.238712
-0.239397
-0.239652
-0.239254
-0.237542
-0.233928
-0.2281
-0.219219
-0.207261
-0.246647
-0.247355
-0.247228
-0.247075
-0.246634
-0.245175
-0.24203
-0.236515
-0.227981
-0.214942
-0.257367
-0.256246
-0.25497
-0.253982
-0.253036
-0.251416
-0.248285
-0.242834
-0.234753
-0.220014
-0.268302
-0.265297
-0.262569
-0.260369
-0.258513
-0.256314
-0.252755
-0.246765
-0.238866
-0.22253
-0.279827
-0.274879
-0.270515
-0.266855
-0.263792
-0.260524
-0.255908
-0.248722
-0.24007
-0.222769
-0.29269
-0.285671
-0.27959
-0.274342
-0.269688
-0.264643
-0.257916
-0.248629
-0.23763
-0.220166
-0.307743
-0.298416
-0.290558
-0.28351
-0.276667
-0.268779
-0.258475
-0.245493
-0.229774
-0.2124
-0.175095
-0.16152
-0.146514
-0.130463
-0.113674
-0.0964696
-0.0792287
-0.0623614
-0.0462338
-0.0311988
-0.0175788
-0.00564769
0.00436674
0.0122812
0.0179523
0.0212691
0.0221185
0.020507
0.015708
0.010261
-0.180941
-0.167302
-0.15218
-0.136043
-0.119053
-0.101582
-0.0841187
-0.0669895
-0.0505852
-0.0352705
-0.0213716
-0.00916965
0.00110368
0.00926573
0.015178
0.0187444
0.0198562
0.0185983
0.0141781
0.00932177
-0.192788
-0.177314
-0.161879
-0.145568
-0.128381
-0.110646
-0.0927871
-0.0752208
-0.058351
-0.0425551
-0.0281732
-0.0154975
-0.00476448
0.00384538
0.0102026
0.0142375
0.0158541
0.0152386
0.0116105
0.00760609
-0.202336
-0.189276
-0.173481
-0.156926
-0.139586
-0.121593
-0.103352
-0.0853237
-0.0679425
-0.0516061
-0.0366701
-0.0234382
-0.0121512
-0.00298519
0.00394342
0.00859592
0.010901
0.0111238
0.00859842
0.0056412
-0.212172
-0.200596
-0.184598
-0.167822
-0.150464
-0.132384
-0.1139
-0.0955196
-0.0777223
-0.0609281
-0.0455041
-0.0317617
-0.019942
-0.0102156
-0.0026804
0.00264755
0.00574277
0.00688134
0.00563209
0.00375612
-0.219079
-0.209015
-0.193214
-0.176401
-0.159196
-0.141263
-0.122786
-0.104289
-0.0862954
-0.0692483
-0.0535206
-0.0394261
-0.0271996
-0.0170068
-0.008921
-0.002955
0.000934361
0.002953
0.00298876
0.00210631
-0.222193
-0.212932
-0.197617
-0.181167
-0.164387
-0.146855
-0.128703
-0.110439
-0.0925874
-0.0756021
-0.059858
-0.045666
-0.0332466
-0.0227639
-0.0142629
-0.00777583
-0.00317811
-0.000394273
0.000798957
0.000759634
-0.221386
-0.211789
-0.197035
-0.181393
-0.1653
-0.148445
-0.130995
-0.113385
-0.0960947
-0.0795706
-0.064176
-0.0502066
-0.0378607
-0.0273053
-0.0185613
-0.0117006
-0.00652239
-0.0031058
-0.00093455
-0.000270161
-0.217034
-0.206819
-0.192888
-0.178022
-0.162664
-0.146799
-0.130464
-0.113899
-0.0975173
-0.081762
-0.0669854
-0.0534674
-0.0413813
-0.0309022
-0.022038
-0.0149123
-0.00926738
-0.0053262
-0.00234683
-0.001057
-0.208339
-0.198771
-0.185559
-0.170705
-0.155805
-0.141025
-0.126
-0.110718
-0.0955182
-0.0808254
-0.0669633
-0.0541953
-0.0426734
-0.0325821
-0.0239091
-0.0168191
-0.01101
-0.00681489
-0.00333704
-0.00161422
-0.182314
-0.182211
-0.170422
-0.155314
-0.140969
-0.127509
-0.114092
-0.100447
-0.0868538
-0.0737285
-0.0613656
-0.0499856
-0.039689
-0.0306397
-0.0227918
-0.0163326
-0.0109234
-0.00697906
-0.00351628
-0.00179018
-0.155114
-0.159609
-0.149471
-0.134853
-0.121579
-0.109956
-0.098702
-0.0872131
-0.0756666
-0.0644771
-0.0539268
-0.0442005
-0.0353602
-0.0275495
-0.0207114
-0.0150458
-0.0102115
-0.00667073
-0.00341908
-0.00183423
-0.128661
-0.135354
-0.127528
-0.11482
-0.103348
-0.0936747
-0.0844661
-0.0749768
-0.0653092
-0.0558647
-0.0469211
-0.0386492
-0.0310912
-0.0243808
-0.0184555
-0.0135264
-0.00925555
-0.00613695
-0.00316694
-0.00179074
-0.103162
-0.111227
-0.105944
-0.0956925
-0.0862294
-0.0783487
-0.0709154
-0.0631941
-0.0552271
-0.0473748
-0.0398995
-0.0329634
-0.0265973
-0.0209271
-0.0158858
-0.0116908
-0.00801115
-0.00536181
-0.00275374
-0.00166889
-0.0791209
-0.0881805
-0.0853002
-0.0775416
-0.0700939
-0.0638963
-0.0580672
-0.0519506
-0.0455466
-0.0391631
-0.0330393
-0.0273321
-0.0220686
-0.0173709
-0.0131703
-0.00968911
-0.00660581
-0.00444919
-0.00225182
-0.00150812
-0.0570648
-0.0667288
-0.065924
-0.0604932
-0.0549815
-0.0503728
-0.0460111
-0.0413457
-0.0363587
-0.0313112
-0.0264184
-0.0218329
-0.0175823
-0.0137879
-0.0103814
-0.00758821
-0.00509696
-0.00344433
-0.00168676
-0.00131753
-0.0371021
-0.0470411
-0.0479688
-0.0446333
-0.0409214
-0.0377886
-0.0347624
-0.0314019
-0.0276899
-0.0238512
-0.0200776
-0.0165164
-0.0131971
-0.0102414
-0.00758264
-0.00544836
-0.00353688
-0.00238891
-0.0010853
-0.00111071
-0.0191102
-0.0291352
-0.0314968
-0.030004
-0.0279221
-0.0261363
-0.0243182
-0.0221291
-0.0195626
-0.0168156
-0.0140579
-0.0114315
-0.00896693
-0.00678764
-0.00482925
-0.00332055
-0.00196919
-0.00131735
-0.000469447
-0.000897168
-0.00297094
-0.012978
-0.0165183
-0.0166193
-0.0159853
-0.0154109
-0.0146787
-0.013539
-0.0119994
-0.0102347
-0.00839614
-0.00661937
-0.00493661
-0.00347262
-0.00216585
-0.00124587
-0.000428989
-0.00025704
0.000143508
-0.000683769
0.0114159
0.00149719
-0.00300687
-0.00447232
-0.00510758
-0.00560982
-0.00584658
-0.00564253
-0.0050193
-0.00413446
-0.00312299
-0.00211485
-0.00114327
-0.00033433
0.0003707
0.000741879
0.00105501
0.000769824
0.000739598
-0.00047582
0.0241592
0.0143738
0.00908242
0.00645521
0.00471783
0.00326898
0.00217551
0.00155097
0.0013613
0.00146312
0.00173513
0.00205267
0.00238182
0.00259555
0.00274991
0.00261496
0.00245939
0.0017453
0.00130758
-0.000277441
0.0353631
0.0257327
0.0197981
0.0161871
0.0135013
0.0112291
0.00938583
0.00803395
0.00712899
0.00653954
0.006156
0.00585848
0.00561266
0.00529087
0.00494679
0.00435076
0.00376514
0.0026549
0.00183842
-9.18768e-05
0.045116
0.0356465
0.0291883
0.0247501
0.0212563
0.0182762
0.0157843
0.0138009
0.0122731
0.0110798
0.0101214
0.00928226
0.00852788
0.00773025
0.00694098
0.00593093
0.00495689
0.00348697
0.00232486
7.8285e-05
0.053494
0.0441812
0.0372993
0.0321723
0.0279982
0.0244176
0.0213725
0.0188483
0.0167856
0.015072
0.0136166
0.0123075
0.0111101
0.00989633
0.00871598
0.00734064
0.00602225
0.00423212
0.00276108
0.000230969
0.0605633
0.0513954
0.0441741
0.0384811
0.033743
0.0296617
0.026153
0.0231742
0.0206604
0.018507
0.0166301
0.0149212
0.0133455
0.0117752
0.0102586
0.00856801
0.00695129
0.00488285
0.00314243
0.000364515
0.0663809
0.0573395
0.0498503
0.0437014
0.038506
0.034017
0.0301296
0.0267782
0.0238938
0.0213779
0.0191529
0.0171128
0.0152231
0.0133558
0.0115582
0.00960361
0.00773615
0.00543323
0.00346519
0.000477603
0.0709918
0.0620538
0.0543581
0.0478538
0.0423006
0.0374916
0.033306
0.0296605
0.0264828
0.0236798
0.0211783
0.0188747
0.0167343
0.0146296
0.0126069
0.0104402
0.00837067
0.00587868
0.0037265
0.0005692
0.0744309
0.0655676
0.0577188
0.0509523
0.0451354
0.0400907
0.0356847
0.0318212
0.0284257
0.0254088
0.0227011
0.0202007
0.0178728
0.0155902
0.0133983
0.0110721
0.00885025
0.00621569
0.00392419
0.000638804
0.0767421
0.0679164
0.0599575
0.0530131
0.0470206
0.0418201
0.0372689
0.0332613
0.0297214
0.0265627
0.0237181
0.0210869
0.0186342
0.0162332
0.0139281
0.0114958
0.00917126
0.0064425
0.0040552
0.000689025
0.077953
0.0691284
0.0610988
0.0540549
0.0479687
0.0426877
0.0380629
0.0339828
0.0303702
0.0271405
0.0242271
0.0215309
0.019015
0.016556
0.0141923
0.0117103
0.00932853
0.00656236
0.00411101
0.000732049
0.0605381
0.0194348
-0.0172587
-0.0494518
-0.0773003
-0.101021
-0.121269
-0.138408
-0.152806
-0.170665
0.0849306
0.045644
0.0105731
-0.0204434
-0.0473908
-0.0707815
-0.0902751
-0.108004
-0.121534
-0.140197
0.106585
0.0693787
0.0361642
0.00649973
-0.0193166
-0.0423498
-0.0613815
-0.0797835
-0.093725
-0.111759
0.125736
0.0903624
0.058682
0.0300804
0.00511565
-0.0176633
-0.0365812
-0.0550906
-0.0694118
-0.0861432
0.142633
0.108796
0.078364
0.0506521
0.0263622
0.0039841
-0.014738
-0.032707
-0.0470172
-0.0625461
0.157554
0.125061
0.0957204
0.0688719
0.0452418
0.0234858
0.0051149
-0.0121461
-0.0263856
-0.0411489
0.170762
0.139476
0.111124
0.0851277
0.0621456
0.0410702
0.0230434
0.00633627
-0.0078308
-0.0220242
0.182469
0.152272
0.12481
0.0996146
0.0772232
0.0567603
0.0390322
0.0227614
0.00877309
-0.0048863
0.192838
0.163617
0.136953
0.112482
0.0906193
0.0706943
0.053271
0.0374038
0.0236707
0.0104853
0.202
0.17365
0.147698
0.123878
0.1025
0.0830605
0.0659563
0.0504579
0.0369748
0.0241896
0.210063
0.182487
0.157175
0.133937
0.113005
0.0940025
0.0772038
0.0620236
0.0487594
0.0363212
0.217118
0.190227
0.165486
0.142765
0.122241
0.103623
0.0871001
0.0721928
0.0591212
0.0469856
0.223253
0.196961
0.17272
0.150453
0.130293
0.11201
0.0957309
0.081059
0.0681538
0.0562729
0.228504
0.202751
0.178943
0.157071
0.137235
0.11924
0.103173
0.0887005
0.0759317
0.0642559
0.232923
0.207624
0.184207
0.162682
0.143126
0.125378
0.10949
0.0951795
0.0825163
0.070998
0.236528
0.211627
0.188556
0.167333
0.148018
0.130475
0.114733
0.100548
0.0879602
0.0765539
0.23937
0.214808
0.192033
0.171063
0.151948
0.134571
0.118942
0.104849
0.0923058
0.0809676
0.241476
0.217197
0.194668
0.173907
0.154952
0.137703
0.122154
0.108117
0.095588
0.0842739
0.242859
0.218814
0.196489
0.175898
0.157071
0.139916
0.124418
0.110405
0.0978605
0.0865244
0.243468
0.2196
0.197426
0.176964
0.158232
0.141145
0.12568
0.111678
0.0991116
0.0877364
0.649268
0.648785
0.639717
0.623368
0.60053
0.569975
0.528117
0.470082
0.395872
0.347011
0.590743
0.583846
0.565517
0.541534
0.511948
0.473741
0.422506
0.353421
0.266848
0.209424
0.529205
0.515186
0.489625
0.459284
0.423146
0.377222
0.316888
0.237645
0.139799
0.0758219
0.460763
0.441673
0.411724
0.376737
0.334886
0.281862
0.213268
0.125418
0.0177946
-0.0497111
0.390325
0.367153
0.333939
0.295168
0.24841
0.189227
0.113417
0.0187189
-0.0954702
-0.163491
0.321385
0.294493
0.258488
0.216447
0.1655
0.101221
0.0194928
-0.0815461
-0.194524
-0.263464
0.255259
0.225098
0.186854
0.142201
0.0879049
0.0197331
-0.0661323
-0.16984
-0.279886
-0.347872
0.192787
0.15992
0.120098
0.0736651
0.0170346
-0.0536678
-0.141344
-0.244948
-0.350336
-0.415273
0.134492
0.0996533
0.0592444
0.0116344
-0.0463814
-0.117947
-0.205351
-0.306203
-0.404407
-0.464947
0.0794858
0.0450791
0.00468034
-0.0433491
-0.101583
-0.172555
-0.257698
-0.35303
-0.441571
-0.497096
1.0455
1.0598
1.07673
1.09635
1.11861
1.14324
1.16943
1.19496
1.21724
1.24344
1.03913
1.05239
1.06853
1.08731
1.10853
1.13186
1.15647
1.18005
1.19998
1.22441
1.02627
1.03749
1.05208
1.06922
1.08837
1.10913
1.13058
1.15026
1.16573
1.18642
1.00671
1.015
1.02735
1.04208
1.05821
1.07521
1.09201
1.10598
1.11491
1.13012
0.980225
0.98483
0.994347
1.00598
1.0182
1.03034
1.04115
1.04773
1.04819
1.05642
0.946571
0.946838
0.953027
0.960989
0.968553
0.97489
0.97854
0.976275
0.966538
0.966557
0.905707
0.901203
0.903784
0.907606
0.909834
0.909523
0.904998
0.892666
0.871281
0.862197
0.856603
0.847197
0.846459
0.846105
0.842612
0.835078
0.821644
0.798341
0.764179
0.745423
0.800064
0.786079
0.782474
0.77752
0.767728
0.752536
0.729768
0.695001
0.647471
0.618602
0.730676
0.718159
0.713468
0.703465
0.686884
0.663736
0.631316
0.584814
0.523765
0.484654
0.998715
0.996172
0.994079
0.992334
0.990761
0.989359
0.988211
0.9874
0.986993
0.987056
0.987665
0.988898
0.990843
0.993598
0.997267
1.00196
1.00781
1.01494
1.0235
1.03359
0.998655
0.996037
0.993843
0.991964
0.990251
0.988708
0.987415
0.986451
0.98588
0.985767
0.986179
0.987194
0.988894
0.991369
0.994716
0.999041
1.00446
1.01107
1.01903
1.02835
0.998572
0.995768
0.993334
0.991189
0.989207
0.98739
0.98581
0.984538
0.983631
0.983151
0.983174
0.983761
0.984973
0.986884
0.989582
0.993154
0.997691
1.00327
1.00998
1.01774
0.998436
0.995335
0.992536
0.99
0.987619
0.985394
0.983383
0.981647
0.980236
0.979194
0.97861
0.978545
0.979025
0.98009
0.981801
0.984217
0.987402
0.991366
0.996169
1.00148
0.998242
0.994731
0.991444
0.988386
0.985475
0.982702
0.98011
0.977745
0.97565
0.973875
0.972487
0.971506
0.97097
0.970893
0.971281
0.972133
0.973468
0.975202
0.977365
0.979289
0.997985
0.993943
0.990046
0.986338
0.982764
0.979306
0.97599
0.972849
0.969864
0.967203
0.964815
0.962682
0.960818
0.959224
0.957893
0.956742
0.95572
0.954581
0.953344
0.950842
0.99766
0.992957
0.988329
0.98385
0.979482
0.9752
0.971003
0.966841
0.96296
0.959241
0.955623
0.952095
0.948645
0.945214
0.941741
0.938051
0.934073
0.929339
0.923989
0.916055
0.997264
0.991771
0.986278
0.980891
0.975601
0.970319
0.965031
0.959973
0.954986
0.949974
0.944913
0.939767
0.93448
0.928919
0.922972
0.916317
0.908853
0.899699
0.889216
0.874151
0.99683
0.990475
0.984064
0.977561
0.971127
0.964818
0.958623
0.952373
0.946015
0.939512
0.932816
0.92583
0.918449
0.910451
0.901689
0.891642
0.880279
0.8661
0.850028
0.826402
0.996216
0.988635
0.981042
0.973598
0.966159
0.958678
0.951121
0.943429
0.93554
0.927366
0.918812
0.90971
0.899898
0.889014
0.876849
0.862508
0.846037
0.824756
0.800996
0.765123
0.995808
0.987427
0.979023
0.970571
0.962014
0.953319
0.944448
0.935331
0.925875
0.915956
0.905435
0.894095
0.881718
0.867869
0.852242
0.833848
0.812398
0.785105
0.751781
0.702896
0.995417
0.986255
0.977021
0.967659
0.958148
0.948457
0.938526
0.928266
0.917568
0.906292
0.894285
0.881308
0.867134
0.851314
0.83354
0.812882
0.789022
0.760016
0.726014
0.684561
0.995028
0.985095
0.975038
0.964797
0.954371
0.943726
0.932787
0.92145
0.909601
0.897093
0.883769
0.869392
0.853738
0.836395
0.817077
0.795047
0.770059
0.740962
0.707828
0.669259
0.994641
0.983945
0.973072
0.961956
0.950619
0.939028
0.927099
0.91472
0.901771
0.888105
0.873567
0.857929
0.84098
0.82236
0.801823
0.778798
0.753112
0.723941
0.691337
0.654005
0.994258
0.982811
0.971136
0.959159
0.946927
0.934418
0.921541
0.908177
0.894203
0.879476
0.863846
0.847103
0.829055
0.809392
0.787913
0.764158
0.738019
0.708813
0.676729
0.640597
0.993882
0.981702
0.96925
0.956439
0.943346
0.929961
0.916189
0.901907
0.886993
0.871309
0.854714
0.837019
0.818056
0.797557
0.775364
0.751095
0.724705
0.69562
0.664138
0.629196
0.993516
0.980631
0.967436
0.953828
0.939914
0.925701
0.911094
0.895965
0.880196
0.863655
0.846216
0.827707
0.807985
0.786821
0.764092
0.739483
0.712994
0.684149
0.653275
0.619413
0.993166
0.979607
0.965708
0.951348
0.936662
0.921674
0.906294
0.890392
0.87385
0.85655
0.838375
0.819176
0.798828
0.777138
0.754013
0.729194
0.702708
0.674162
0.64387
0.61099
0.992833
0.978639
0.964082
0.949019
0.933613
0.91791
0.901821
0.885217
0.867985
0.850015
0.831205
0.811422
0.790562
0.76846
0.745048
0.720114
0.693698
0.66548
0.635742
0.603768
0.992522
0.977734
0.962567
0.946856
0.930788
0.914429
0.897697
0.880464
0.86262
0.844065
0.824708
0.804435
0.783157
0.760737
0.737121
0.712141
0.68584
0.657961
0.62875
0.597612
0.992234
0.976898
0.961172
0.944871
0.928202
0.91125
0.89394
0.876146
0.857764
0.838701
0.818879
0.798197
0.776581
0.753916
0.730162
0.705184
0.679025
0.651485
0.622768
0.592394
0.99197
0.976135
0.959905
0.943073
0.925864
0.908382
0.890559
0.872272
0.853421
0.833922
0.813705
0.792685
0.770796
0.747947
0.724102
0.69916
0.673157
0.645944
0.617685
0.588001
0.991734
0.97545
0.95877
0.941468
0.923782
0.905833
0.88756
0.868845
0.84959
0.829719
0.80917
0.787872
0.765767
0.742779
0.718882
0.693996
0.668154
0.641247
0.613403
0.584336
0.991525
0.974844
0.957772
0.940061
0.921961
0.903607
0.884946
0.865863
0.846264
0.826081
0.805258
0.783733
0.761457
0.738369
0.714444
0.689626
0.663939
0.637312
0.609838
0.581314
0.991345
0.974321
0.956913
0.938855
0.920404
0.901705
0.882715
0.863323
0.843438
0.822996
0.801948
0.780242
0.757833
0.734672
0.710738
0.685991
0.660449
0.634071
0.606919
0.578861
0.991193
0.973881
0.956195
0.937854
0.919112
0.900128
0.880865
0.861219
0.841101
0.82045
0.799223
0.777375
0.754864
0.731653
0.70772
0.683042
0.657628
0.631463
0.604584
0.576918
0.99107
0.973526
0.955623
0.937059
0.918085
0.898872
0.879393
0.859546
0.839245
0.818432
0.797066
0.775109
0.752524
0.729278
0.705353
0.680736
0.655431
0.629441
0.602784
0.575433
0.990983
0.97327
0.95521
0.936475
0.917321
0.897933
0.878293
0.858298
0.837862
0.816929
0.795462
0.773427
0.750788
0.727521
0.703606
0.679039
0.653819
0.627967
0.601481
0.574368
0.990947
0.973151
0.954999
0.93613
0.91683
0.897313
0.877562
0.85747
0.836945
0.815933
0.7944
0.772313
0.749642
0.726362
0.702455
0.677923
0.652763
0.627007
0.600646
0.573704
0.990811
0.973075
0.954971
0.936019
0.916611
0.897012
0.877202
0.85706
0.836489
0.815438
0.793871
0.77176
0.749072
0.725786
0.701884
0.67737
0.652241
0.626535
0.600245
0.573421
0.645068
0.584856
0.526198
0.463074
0.397492
0.333316
0.271697
0.212837
0.157154
0.106323
0.638026
0.575747
0.515957
0.45732
0.396898
0.337355
0.280346
0.225985
0.174945
0.128209
0.626033
0.566627
0.507969
0.453454
0.398198
0.342908
0.289718
0.239155
0.19162
0.147495
0.613679
0.558524
0.502062
0.450483
0.39946
0.348022
0.298139
0.250722
0.206061
0.164425
0.602501
0.551245
0.497558
0.448435
0.400842
0.352853
0.30589
0.261123
0.218928
0.179421
0.59267
0.544749
0.494045
0.447187
0.402345
0.357327
0.312962
0.270475
0.230377
0.192709
0.584113
0.539056
0.491265
0.44655
0.403954
0.361439
0.319368
0.278871
0.240565
0.204494
0.57675
0.534166
0.489061
0.44635
0.405633
0.365205
0.325136
0.286387
0.249631
0.214953
0.570475
0.530027
0.487319
0.446441
0.407329
0.368639
0.330299
0.293089
0.257684
0.224226
0.565167
0.526562
0.485949
0.446715
0.408986
0.371752
0.334892
0.299033
0.264813
0.232425
0.560707
0.523685
0.484879
0.44709
0.410556
0.374546
0.338947
0.304267
0.271089
0.239641
0.556987
0.521313
0.484045
0.447505
0.411999
0.37702
0.342491
0.308834
0.276574
0.245948
0.55391
0.519369
0.483391
0.447913
0.413281
0.37917
0.345543
0.312764
0.281305
0.251448
0.551389
0.517781
0.482868
0.448275
0.414378
0.380991
0.348123
0.316087
0.285284
0.255974
0.549351
0.516489
0.482432
0.448559
0.415266
0.382478
0.350243
0.318842
0.288643
0.25993
0.547736
0.515444
0.48205
0.448741
0.41593
0.383626
0.351911
0.321045
0.29136
0.263114
0.546491
0.514602
0.481694
0.448805
0.416358
0.384432
0.353134
0.322704
0.293444
0.265597
0.545575
0.513925
0.481332
0.448726
0.416538
0.384894
0.35392
0.323838
0.294923
0.267403
0.544969
0.513386
0.48092
0.448443
0.416403
0.384955
0.354225
0.324418
0.295789
0.26855
0.544723
0.5131
0.480577
0.448043
0.415997
0.384619
0.354024
0.324394
0.295959
0.268924
)
;

boundaryField
{
    bottom
    {
        type            symmetryPlane;
    }
    right
    {
        type            fixedValue;
        value           uniform 0;
    }
    top
    {
        type            symmetryPlane;
    }
    left
    {
        type            fixedValue;
        value           uniform 1;
    }
    cylinder
    {
        type            zeroGradient;
    }
    defaultFaces
    {
        type            empty;
    }
}


// ************************************************************************* //
