/*--------------------------------*- C++ -*----------------------------------*\
| =========                 |                                                 |
| \\      /  F ield         | OpenFOAM: The Open Source CFD Toolbox           |
|  \\    /   O peration     | Version:  4.1                                   |
|   \\  /    A nd           | Web:      www.OpenFOAM.org                      |
|    \\/     M anipulation  |                                                 |
\*---------------------------------------------------------------------------*/
FoamFile
{
    version     2.0;
    format      ascii;
    class       volVectorField;
    location    "5.3";
    object      U;
}
// * * * * * * * * * * * * * * * * * * * * * * * * * * * * * * * * * * * * * //

dimensions      [0 1 -1 0 0 0 0];

internalField   nonuniform List<vector> 
2000
(
(-0.0196145 0.0200911 3.96042e-20)
(0.0412532 0.00329644 0)
(0.18707 -0.0296325 6.24526e-20)
(0.3912 -0.0679123 2.77174e-20)
(0.623312 -0.103101 -5.14538e-20)
(0.85118 -0.131339 -6.71508e-20)
(1.05057 -0.151662 2.15728e-20)
(1.20771 -0.167369 0)
(1.32581 -0.172406 -1.49425e-20)
(1.38926 -0.191234 0)
(-0.00854332 0.0107539 -1.96138e-20)
(0.0952798 -0.0206602 1.72246e-20)
(0.298099 -0.0574751 -6.67089e-20)
(0.555447 -0.0910406 -8.83583e-20)
(0.819261 -0.11592 -7.03317e-22)
(1.05097 -0.131825 2.19843e-20)
(1.231 -0.140914 -2.05189e-20)
(1.35665 -0.14627 -1.68205e-20)
(1.43555 -0.146403 1.49425e-20)
(1.47111 -0.156021 2.24737e-20)
(0.00949675 0.000340687 2.133e-20)
(0.16959 -0.0434319 -1.9979e-20)
(0.436241 -0.077887 3.35932e-20)
(0.738457 -0.10049 -1.28245e-21)
(1.01324 -0.111961 2.63863e-20)
(1.22638 -0.116081 2.3018e-20)
(1.37164 -0.116641 1.9809e-20)
(1.45872 -0.116536 1.68207e-20)
(1.50338 -0.114929 1.30549e-20)
(1.52042 -0.12142 -1.06124e-20)
(0.0361484 -0.0104337 -6.52678e-22)
(0.265418 -0.0616761 -2.13747e-20)
(0.595309 -0.0861642 0)
(0.924327 -0.0935042 2.93044e-20)
(1.18695 -0.0919847 -2.84875e-20)
(1.36531 -0.0876082 0)
(1.47018 -0.0837899 0)
(1.52217 -0.081821 0)
(1.54156 -0.0804902 -1.30555e-20)
(1.54005 -0.0858701 1.93904e-20)
(0.0726403 -0.0202717 5.04284e-20)
(0.381215 -0.0711703 -8.30156e-23)
(0.764172 -0.0787797 1.9669e-20)
(1.09707 -0.0701422 1.57378e-20)
(1.32928 -0.0589717 1.36207e-20)
(1.46599 -0.0504547 1.0955e-20)
(1.53321 -0.0459166 0)
(1.55769 -0.0447333 6.7851e-21)
(1.5592 -0.0455764 -2.56265e-20)
(1.55041 -0.0511638 3.27411e-20)
(0.119557 -0.0273426 -7.88707e-20)
(0.511937 -0.0677101 1.5492e-21)
(0.929603 -0.0544818 -3.87329e-20)
(1.24537 -0.032573 3.43399e-20)
(1.43716 -0.0163768 -3.86237e-20)
(1.53309 -0.00771938 1.25183e-20)
(1.56936 -0.00514171 0)
(1.57422 -0.00646266 -6.78553e-21)
(1.56534 -0.00996241 5.22946e-21)
(1.55131 -0.0159963 1.148e-20)
(0.176406 -0.0294511 0)
(0.64935 -0.048368 0)
(1.08008 -0.0142618 -1.93842e-20)
(1.36389 0.0161892 1.80456e-20)
(1.51277 0.0328347 -1.19223e-20)
(1.5731 0.0384916 1.11935e-20)
(1.58601 0.0372984 1.33881e-20)
(1.57804 0.0325083 -1.2655e-20)
(1.56312 0.0259852 -6.73573e-21)
(1.54731 0.0188286 3.28836e-21)
(0.241316 -0.0244176 1.49665e-20)
(0.783717 -0.0123558 0)
(1.20792 0.0394543 -8.90412e-21)
(1.4519 0.0731213 3.27908e-20)
(1.56033 0.0863245 -1.97638e-20)
(1.59194 0.0867547 0)
(1.58842 0.0807065 0)
(1.57266 0.0719143 0)
(1.55488 0.0623357 -4.51918e-21)
(1.53827 0.0537102 4.29565e-21)
(0.31104 -0.0105089 -7.73134e-21)
(0.906039 0.0389635 -3.59746e-22)
(1.30913 0.103563 -1.03902e-20)
(1.51109 0.135515 3.71647e-21)
(1.58431 0.142263 3.61787e-21)
(1.59416 0.136021 4.59146e-21)
(1.57988 0.124506 0)
(1.55995 0.111452 -5.93096e-22)
(1.54112 0.0987601 -1.18006e-21)
(1.52468 0.0880307 9.22523e-22)
(0.381323 0.0131827 0)
(1.00965 0.102776 -6.41682e-21)
(1.38241 0.174794 0)
(1.54415 0.200992 -2.18143e-21)
(1.58852 0.19914 -2.00956e-21)
(1.5829 0.185382 -1.91281e-21)
(1.56221 0.168093 0)
(1.5406 0.150635 5.9314e-22)
(1.52204 0.134788 2.09463e-22)
(1.50638 0.121547 -3.86391e-22)
(-0.00941607 0.00862693 0)
(-0.0355514 0.0149201 -3.10229e-21)
(-0.070053 0.0159993 0)
(-0.100383 0.0146394 -4.0202e-21)
(-0.123986 0.0119321 -1.25677e-21)
(-0.140377 0.00838169 2.27006e-21)
(-0.149405 0.00431711 -2.13781e-21)
(-0.151276 7.23043e-05 1.94935e-21)
(-0.146643 -0.00393856 6.69299e-23)
(-0.137225 -0.00718905 1.61369e-21)
(-0.0108648 0.0247473 -9.85797e-21)
(-0.035941 0.0429973 6.14673e-21)
(-0.0667585 0.0462393 -5.85646e-21)
(-0.0924527 0.0422841 2.67431e-21)
(-0.110891 0.0343098 1.25622e-20)
(-0.121684 0.0237976 -4.6824e-21)
(-0.124724 0.0116831 0)
(-0.120214 -0.00110238 -1.9428e-21)
(-0.108565 -0.0133687 -1.76015e-21)
(-0.0912168 -0.0233689 0)
(-0.0134835 0.0376921 6.58308e-21)
(-0.036684 0.0660775 0)
(-0.0606834 0.0713343 1.77246e-20)
(-0.0776579 0.0650489 -2.2092e-20)
(-0.0862253 0.0521973 5.24001e-21)
(-0.086231 0.0351343 0)
(-0.0777358 0.0152682 0)
(-0.061161 -0.00605299 0)
(-0.0366788 -0.0269143 1.43638e-20)
(-0.00341719 -0.0435777 -1.36514e-20)
(-0.0167612 0.0461743 0)
(-0.0376413 0.0817807 -1.31866e-20)
(-0.0526055 0.0884443 2.44569e-20)
(-0.0576139 0.0799591 -1.13964e-20)
(-0.0523098 0.062666 1.06078e-20)
(-0.0369356 0.039656 -2.96559e-20)
(-0.0118265 0.0127127 3.70835e-22)
(0.022195 -0.0166953 1.71902e-20)
(0.0648863 -0.0460924 1.5043e-20)
(0.118556 -0.0699812 -2.13741e-20)
(-0.0201662 0.0499476 1.42292e-20)
(-0.0384817 0.088958 -2.75145e-20)
(-0.0430072 0.0957204 -2.01665e-22)
(-0.0335363 0.0847002 1.60619e-22)
(-0.0108896 0.06311 1.07667e-20)
(0.0241337 0.034695 -3.09158e-20)
(0.0706809 0.00161037 0)
(0.127349 -0.0345243 -8.91551e-21)
(0.192328 -0.0714513 8.15811e-21)
(0.273921 -0.102363 -2.88476e-20)
(-0.0232813 0.0496531 -2.83137e-22)
(-0.0385272 0.0877695 2.80558e-20)
(-0.031361 0.0925378 1.28315e-20)
(-0.00498152 0.0779907 1.25517e-20)
(0.0386564 0.0517981 1.11152e-20)
(0.0979577 0.0182969 1.0371e-20)
(0.171188 -0.0198603 0)
(0.25597 -0.0605121 8.91471e-21)
(0.345785 -0.102488 2.39192e-20)
(0.461024 -0.137723 -8.37371e-21)
(-0.0258053 0.0464297 8.71253e-23)
(-0.0365727 0.0793826 1.47181e-20)
(-0.0155362 0.0795465 0)
(0.031334 0.0600502 -2.40742e-20)
(0.100923 0.0288135 2.30849e-20)
(0.190264 -0.0093747 0)
(0.295535 -0.0512457 0)
(0.412698 -0.0935896 0)
(0.527721 -0.136866 -1.68841e-20)
(0.675843 -0.171097 -2.97336e-20)
(-0.0274285 0.0413987 -1.63346e-20)
(-0.0306726 0.0654139 1.53009e-20)
(0.00851013 0.0584518 2.81101e-20)
(0.0817601 0.0327653 6.64749e-22)
(0.18415 -0.0035337 2.37321e-20)
(0.309808 -0.0451514 2.19325e-20)
(0.45087 -0.0881886 2.0217e-20)
(0.599667 -0.128669 1.84954e-20)
(0.736465 -0.168548 1.68823e-20)
(0.903604 -0.195412 -1.49378e-20)
(-0.0276153 0.0352668 -5.23895e-20)
(-0.0180674 0.0473731 -1.52302e-20)
(0.0463655 0.0315132 -5.66634e-20)
(0.154369 -0.00067262 -2.59285e-20)
(0.297203 -0.0406763 5.72717e-22)
(0.463085 -0.0826817 -2.14801e-20)
(0.637957 -0.122532 2.06625e-20)
(0.808537 -0.157426 -1.84936e-20)
(0.957742 -0.188615 1.64742e-20)
(1.11682 -0.204758 -2.93416e-20)
(-0.0254469 0.0282154 3.53575e-20)
(0.00466411 0.0263714 0)
(0.104133 0.00121023 2.91328e-20)
(0.256418 -0.0359547 -1.14456e-22)
(0.444825 -0.0761672 6.1843e-22)
(0.648009 -0.113808 2.17675e-20)
(0.84513 -0.145484 -6.18061e-20)
(1.01905 -0.171748 0)
(1.16347 -0.189642 -1.6473e-20)
(1.28429 -0.199965 0)
(-0.125787 -0.00930085 0)
(-0.112569 -0.0121079 -1.27004e-21)
(-0.0957022 -0.0150024 2.42376e-21)
(-0.0751357 -0.0177521 -1.01444e-21)
(-0.0511267 -0.0203545 0)
(-0.0239653 -0.0226367 7.38684e-22)
(0.00616459 -0.0246114 -7.42348e-22)
(0.0389542 -0.026353 0)
(0.0739591 -0.0278175 0)
(0.110912 -0.0289993 3.56402e-23)
(0.149491 -0.0299106 0)
(0.189371 -0.0305698 0)
(0.230247 -0.0310024 0)
(0.271847 -0.0312411 0)
(0.313932 -0.0313254 4.31463e-23)
(0.356348 -0.0313036 -4.337e-23)
(0.398773 -0.031225 0)
(0.442282 -0.0311718 2.02286e-23)
(0.481495 -0.0312031 -2.03351e-23)
(0.540435 -0.031475 0)
(-0.0745213 -0.0289774 0)
(-0.059702 -0.0374976 3.54655e-22)
(-0.0412357 -0.0459703 0)
(-0.0194124 -0.0539576 4.09941e-21)
(0.00559356 -0.0613039 -3.99897e-21)
(0.0335599 -0.0679229 2.22412e-22)
(0.063964 -0.0737471 -1.27241e-21)
(0.0966087 -0.0787984 2.42329e-21)
(0.131217 -0.0830125 -1.61307e-21)
(0.167479 -0.0863884 7.80625e-22)
(0.205085 -0.0889593 2.61928e-22)
(0.24373 -0.0907801 -3.06026e-22)
(0.28313 -0.091928 6.97788e-23)
(0.323031 -0.0925 -1.20621e-22)
(0.363207 -0.0926133 1.0687e-22)
(0.403545 -0.0924056 -3.62169e-23)
(0.443616 -0.09203 -3.94026e-23)
(0.484804 -0.0916723 -7.2666e-23)
(0.521057 -0.091613 7.30183e-23)
(0.576354 -0.0920011 -1.87874e-23)
(0.021934 -0.0534676 -4.05629e-22)
(0.0391985 -0.0660789 -3.55268e-22)
(0.0610451 -0.0791212 -3.47096e-22)
(0.0855452 -0.0916659 0)
(0.112297 -0.10311 -4.52568e-21)
(0.141133 -0.113465 3.53831e-21)
(0.171824 -0.122596 0)
(0.204144 -0.130404 -3.19525e-22)
(0.237826 -0.136842 -1.15421e-22)
(0.272597 -0.141915 1.02047e-21)
(0.308182 -0.145673 -4.62258e-22)
(0.344322 -0.148207 -8.17153e-22)
(0.380775 -0.149646 -1.82168e-23)
(0.417332 -0.150148 1.4167e-23)
(0.453787 -0.149907 1.53489e-23)
(0.490117 -0.149127 -9.52063e-23)
(0.525736 -0.148087 6.3966e-23)
(0.562442 -0.146939 1.36602e-22)
(0.593551 -0.146358 4.34845e-23)
(0.641903 -0.14598 1.2005e-23)
(0.154286 -0.0832795 -1.2499e-20)
(0.177706 -0.0984808 9.54407e-22)
(0.201984 -0.115079 1.42078e-21)
(0.229074 -0.131109 1.09913e-20)
(0.257761 -0.145772 8.84434e-22)
(0.287481 -0.158889 2.42899e-22)
(0.318078 -0.17035 -5.87571e-21)
(0.349413 -0.180045 3.93984e-21)
(0.381291 -0.187904 2.58673e-21)
(0.413491 -0.193924 -1.63276e-21)
(0.445804 -0.198173 4.7822e-22)
(0.478035 -0.200773 1.1824e-21)
(0.510012 -0.201906 1.8065e-23)
(0.5416 -0.201783 2.00412e-23)
(0.572641 -0.200683 -6.92748e-24)
(0.603224 -0.198831 1.67987e-22)
(0.632656 -0.196683 -1.61422e-22)
(0.663016 -0.194193 0)
(0.68762 -0.192603 -5.29095e-23)
(0.726512 -0.19055 -1.4219e-23)
(0.317175 -0.116493 2.82878e-20)
(0.346201 -0.134208 -1.19385e-20)
(0.372884 -0.153235 1.28091e-20)
(0.401651 -0.171381 0)
(0.431331 -0.187874 -6.04922e-22)
(0.460942 -0.202521 -8.22908e-21)
(0.490285 -0.215191 7.79188e-22)
(0.519335 -0.225734 1.21269e-21)
(0.54799 -0.234054 5.81615e-21)
(0.576108 -0.240145 2.36581e-22)
(0.603562 -0.244091 0)
(0.630249 -0.246045 -1.16419e-22)
(0.656105 -0.246247 0)
(0.681087 -0.244943 -2.79326e-23)
(0.70514 -0.242516 0)
(0.728432 -0.239153 0)
(0.750369 -0.235557 -3.53814e-23)
(0.772851 -0.231305 5.32623e-23)
(0.79037 -0.228433 -4.30051e-23)
(0.818136 -0.224019 1.9652e-23)
(0.506807 -0.151477 0)
(0.538821 -0.170353 -8.54552e-22)
(0.566195 -0.190637 -2.46684e-20)
(0.594445 -0.209588 2.39211e-20)
(0.622865 -0.226586 -6.74916e-22)
(0.65025 -0.241565 0)
(0.676297 -0.254342 -7.57556e-21)
(0.70104 -0.264705 1.34848e-20)
(0.724474 -0.272543 -6.73014e-21)
(0.746549 -0.277859 -3.02023e-22)
(0.767254 -0.280766 -2.36381e-22)
(0.786596 -0.281449 -1.77388e-22)
(0.804664 -0.280214 0)
(0.821507 -0.277329 3.49312e-22)
(0.837265 -0.273299 -6.78386e-22)
(0.852055 -0.268207 1.97913e-22)
(0.865726 -0.263061 -4.65865e-24)
(0.879332 -0.256931 5.34758e-24)
(0.88982 -0.252788 -1.06087e-23)
(0.905788 -0.245852 1.03632e-23)
(0.717373 -0.183467 2.98976e-20)
(0.747266 -0.202405 0)
(0.772071 -0.222743 -8.2696e-22)
(0.796712 -0.241291 1.50601e-21)
(0.820726 -0.257747 1.36338e-21)
(0.84296 -0.272133 6.1499e-22)
(0.863065 -0.284155 5.39738e-22)
(0.88105 -0.293543 -6.29143e-21)
(0.896975 -0.300195 7.48361e-21)
(0.910905 -0.304139 5.09589e-21)
(0.922988 -0.305537 -4.23309e-21)
(0.933363 -0.304615 3.72245e-22)
(0.942321 -0.301755 -9.19632e-22)
(0.949966 -0.297227 3.9249e-22)
(0.956736 -0.291657 7.19859e-22)
(0.962504 -0.284985 3.97125e-23)
(0.967887 -0.27852 -4.80771e-24)
(0.972494 -0.270789 2.70942e-23)
(0.976579 -0.26567 -3.01639e-24)
(0.981303 -0.256627 -9.75091e-25)
(0.934591 -0.206852 0)
(0.957077 -0.225204 -2.77087e-20)
(0.975724 -0.244378 2.84171e-20)
(0.993646 -0.261739 -7.61058e-22)
(1.01018 -0.27721 -1.37428e-21)
(1.02441 -0.29054 -6.14414e-22)
(1.03601 -0.301315 -1.07952e-21)
(1.04494 -0.30931 0)
(1.05136 -0.314489 -3.87442e-22)
(1.05551 -0.316926 -3.17243e-22)
(1.05775 -0.316837 -2.6697e-22)
(1.05835 -0.314479 -4.04405e-22)
(1.05782 -0.310296 0)
(1.05625 -0.304528 0)
(1.05441 -0.297897 -6.56516e-23)
(1.05174 -0.29017 -3.82128e-22)
(1.04979 -0.282912 2.69884e-22)
(1.04638 -0.274151 -1.66318e-23)
(1.04526 -0.268509 -1.14277e-23)
(1.0405 -0.258096 5.52907e-24)
(1.13515 -0.217841 3.05733e-20)
(1.14867 -0.235768 0)
(1.15938 -0.253419 0)
(1.16835 -0.269745 -2.30064e-20)
(1.17518 -0.284266 2.78011e-21)
(1.17935 -0.296345 3.90554e-20)
(1.1806 -0.305692 -1.77849e-20)
(1.17901 -0.312263 0)
(1.175 -0.316111 0)
(1.16903 -0.317348 0)
(1.16168 -0.316227 1.28918e-22)
(1.15326 -0.313001 3.14108e-22)
(1.14444 -0.308133 2.29073e-21)
(1.13515 -0.301789 -2.21264e-21)
(1.12642 -0.29474 5.77573e-22)
(1.11713 -0.286586 -5.22037e-22)
(1.10972 -0.279077 0)
(1.10019 -0.269847 4.51165e-24)
(1.09544 -0.26406 6.22765e-24)
(1.0836 -0.252901 0)
(1.29956 -0.21864 -4.64988e-22)
(1.30772 -0.234825 -2.66703e-20)
(1.30961 -0.250176 2.63924e-20)
(1.3073 -0.264824 0)
(1.30238 -0.2776 1.99666e-20)
(1.29516 -0.287959 -3.75426e-20)
(1.28563 -0.295895 1.75996e-20)
(1.27401 -0.301442 0)
(1.2609 -0.304635 5.6962e-21)
(1.24678 -0.305538 -1.03668e-20)
(1.23225 -0.304366 4.81305e-21)
(1.21749 -0.301298 -1.05505e-22)
(1.20313 -0.296753 0)
(1.18881 -0.290801 -1.79901e-21)
(1.17576 -0.284208 2.34207e-21)
(1.16223 -0.276441 -6.14737e-22)
(1.15143 -0.269338 -2.6655e-22)
(1.13786 -0.260293 2.00096e-22)
(1.13091 -0.254745 7.45195e-23)
(1.11421 -0.243397 0)
(1.43734 -0.19545 0)
(1.42908 -0.209474 0)
(1.41381 -0.221869 0)
(1.39665 -0.234259 0)
(1.37991 -0.24601 0)
(1.36341 -0.256279 0)
(1.34651 -0.264656 0)
(1.32895 -0.271041 0)
(1.31101 -0.275479 0)
(1.29289 -0.277998 0)
(1.275 -0.278725 0)
(1.25729 -0.277705 0)
(1.24034 -0.27527 0)
(1.22354 -0.27136 0)
(1.20825 -0.266697 0)
(1.19236 -0.260643 0)
(1.17962 -0.255004 0)
(1.16361 -0.247172 0)
(1.15521 -0.242422 0)
(1.13552 -0.231792 0)
(1.47085 -0.177722 0)
(1.46339 -0.193473 0)
(1.44649 -0.20743 0)
(1.42688 -0.220328 0)
(1.40806 -0.231976 0)
(1.39 -0.241912 0)
(1.37184 -0.249883 0)
(1.35318 -0.255859 0)
(1.33424 -0.259937 0)
(1.31525 -0.262194 0)
(1.29661 -0.262793 0)
(1.2782 -0.261796 0)
(1.26061 -0.259528 0)
(1.24312 -0.25593 0)
(1.22719 -0.251671 0)
(1.21053 -0.246135 0)
(1.19713 -0.240997 0)
(1.18015 -0.233785 0)
(1.17122 -0.22943 0)
(1.15018 -0.219486 0)
(1.48442 -0.160005 0)
(1.47675 -0.176267 0)
(1.45973 -0.190636 0)
(1.43981 -0.203144 0)
(1.4207 -0.213982 0)
(1.40249 -0.223158 0)
(1.38429 -0.230608 0)
(1.36563 -0.23631 0)
(1.34671 -0.240327 0)
(1.32775 -0.242723 0)
(1.30915 -0.243645 0)
(1.29076 -0.243139 0)
(1.27317 -0.241488 0)
(1.25561 -0.238608 0)
(1.23958 -0.235103 0)
(1.22271 -0.23037 0)
(1.20913 -0.22596 0)
(1.19176 -0.219546 0)
(1.18263 -0.215711 0)
(1.16098 -0.206586 0)
(1.48443 -0.143533 0)
(1.47716 -0.159554 0)
(1.46118 -0.173728 0)
(1.44219 -0.185799 0)
(1.42373 -0.196073 0)
(1.40608 -0.204779 0)
(1.38848 -0.211954 0)
(1.37045 -0.217562 0)
(1.35217 -0.221633 0)
(1.33381 -0.22421 0)
(1.31577 -0.225431 0)
(1.29788 -0.225336 0)
(1.28072 -0.22418 0)
(1.26351 -0.221874 0)
(1.24776 -0.218969 0)
(1.23105 -0.214889 0)
(1.21758 -0.211071 0)
(1.20019 -0.205334 0)
(1.19108 -0.201932 0)
(1.16928 -0.193544 0)
(1.47754 -0.129076 0)
(1.47097 -0.144303 0)
(1.45647 -0.15789 0)
(1.43894 -0.169432 0)
(1.4216 -0.179196 0)
(1.4049 -0.187465 0)
(1.38821 -0.19433 0)
(1.37112 -0.199771 0)
(1.35376 -0.203807 0)
(1.33626 -0.206471 0)
(1.31901 -0.207893 0)
(1.30183 -0.208108 0)
(1.2853 -0.207347 0)
(1.26863 -0.205516 0)
(1.25333 -0.203119 0)
(1.23696 -0.199608 0)
(1.22377 -0.196306 0)
(1.20658 -0.191183 0)
(1.19759 -0.188169 0)
(1.17591 -0.180487 0)
(1.46863 -0.116415 0)
(1.46262 -0.130552 0)
(1.44955 -0.143319 0)
(1.43353 -0.154216 0)
(1.41745 -0.163426 0)
(1.40178 -0.171222 0)
(1.38608 -0.177727 0)
(1.36997 -0.182941 0)
(1.35356 -0.18688 0)
(1.33696 -0.18957 0)
(1.32055 -0.191127 0)
(1.30412 -0.191577 0)
(1.28826 -0.19113 0)
(1.27217 -0.189691 0)
(1.25737 -0.187718 0)
(1.24143 -0.184693 0)
(1.22858 -0.181834 0)
(1.21167 -0.177256 0)
(1.20287 -0.174584 0)
(1.18145 -0.167563 0)
(1.46009 -0.105165 0)
(1.45438 -0.118112 0)
(1.44251 -0.129936 0)
(1.42787 -0.140097 0)
(1.41296 -0.148704 0)
(1.39827 -0.156 0)
(1.38347 -0.162112 0)
(1.36826 -0.167058 0)
(1.35274 -0.170851 0)
(1.33698 -0.173512 0)
(1.32133 -0.175138 0)
(1.30561 -0.175753 0)
(1.29038 -0.175544 0)
(1.27486 -0.174417 0)
(1.26055 -0.172789 0)
(1.24504 -0.170176 0)
(1.23254 -0.167695 0)
(1.21596 -0.163602 0)
(1.20737 -0.16123 0)
(1.18627 -0.154826 0)
(1.45275 -0.0950305 0)
(1.44712 -0.106766 0)
(1.4362 -0.117584 0)
(1.42275 -0.126949 0)
(1.40887 -0.134915 0)
(1.39504 -0.141686 0)
(1.38103 -0.147382 0)
(1.36659 -0.152025 0)
(1.35184 -0.155629 0)
(1.33681 -0.158208 0)
(1.32185 -0.159849 0)
(1.30676 -0.160567 0)
(1.2921 -0.160532 0)
(1.2771 -0.159652 0)
(1.26324 -0.158306 0)
(1.24814 -0.156044 0)
(1.23597 -0.153886 0)
(1.21972 -0.150228 0)
(1.21132 -0.148123 0)
(1.19058 -0.142301 0)
(1.44671 -0.0857415 0)
(1.44103 -0.0962822 0)
(1.43085 -0.106076 0)
(1.41837 -0.114616 0)
(1.40537 -0.121919 0)
(1.39227 -0.128147 0)
(1.37893 -0.133407 0)
(1.36516 -0.13772 0)
(1.35106 -0.141101 0)
(1.33667 -0.143558 0)
(1.3223 -0.145169 0)
(1.30776 -0.145942 0)
(1.2936 -0.14603 0)
(1.27905 -0.145345 0)
(1.26561 -0.14423 0)
(1.25088 -0.142269 0)
(1.23901 -0.140391 0)
(1.22309 -0.137129 0)
(1.21487 -0.135264 0)
(1.19449 -0.129991 0)
(1.44183 -0.0770692 0)
(1.43601 -0.086461 0)
(1.42639 -0.0952454 0)
(1.41472 -0.102957 0)
(1.40245 -0.109585 0)
(1.38997 -0.115259 0)
(1.3772 -0.120069 0)
(1.36399 -0.124032 0)
(1.35045 -0.127164 0)
(1.3366 -0.12947 0)
(1.32274 -0.131014 0)
(1.30867 -0.131805 0)
(1.29495 -0.131976 0)
(1.28081 -0.131445 0)
(1.26772 -0.13052 0)
(1.25333 -0.128821 0)
(1.24174 -0.127189 0)
(1.22611 -0.12429 0)
(1.21807 -0.122641 0)
(1.19803 -0.117894 0)
(1.43791 -0.0688555 0)
(1.43189 -0.0771557 0)
(1.42269 -0.0849615 0)
(1.41168 -0.0918537 0)
(1.40002 -0.0978052 0)
(1.38807 -0.102919 0)
(1.37577 -0.107269 0)
(1.36303 -0.110869 0)
(1.34997 -0.113733 0)
(1.33658 -0.115862 0)
(1.32316 -0.117314 0)
(1.3095 -0.118091 0)
(1.29616 -0.118313 0)
(1.28238 -0.117903 0)
(1.26961 -0.117137 0)
(1.25552 -0.115669 0)
(1.24418 -0.114254 0)
(1.22884 -0.111692 0)
(1.22095 -0.110241 0)
(1.20124 -0.105998 0)
(1.43474 -0.0609896 0)
(1.4285 -0.068254 0)
(1.41962 -0.0751162 0)
(1.40915 -0.0812047 0)
(1.398 -0.0864847 0)
(1.38648 -0.091037 0)
(1.37459 -0.094922 0)
(1.36226 -0.0981504 0)
(1.34959 -0.100731 0)
(1.3366 -0.102667 0)
(1.32356 -0.104005 0)
(1.31025 -0.104745 0)
(1.29725 -0.104993 0)
(1.28377 -0.104679 0)
(1.27128 -0.104045 0)
(1.25747 -0.102783 0)
(1.24635 -0.101563 0)
(1.23126 -0.099316 0)
(1.22352 -0.0980489 0)
(1.20411 -0.0942928 0)
(1.43219 -0.0533843 0)
(1.42572 -0.0596652 0)
(1.41709 -0.0656205 0)
(1.40705 -0.070926 0)
(1.39633 -0.0755439 0)
(1.38517 -0.079538 0)
(1.37361 -0.0829566 0)
(1.36162 -0.0858071 0)
(1.34929 -0.0880962 0)
(1.33663 -0.089824 0)
(1.32391 -0.0910315 0)
(1.31091 -0.0917172 0)
(1.29819 -0.0919715 0)
(1.28499 -0.0917314 0)
(1.27275 -0.0912097 0)
(1.25917 -0.0901342 0)
(1.24825 -0.0890914 0)
(1.23339 -0.0871421 0)
(1.22579 -0.086047 0)
(1.20665 -0.0827629 0)
(1.43014 -0.0459716 0)
(1.42345 -0.0513176 0)
(1.415 -0.0564019 0)
(1.40532 -0.0609468 0)
(1.39494 -0.064915 0)
(1.38408 -0.0683565 0)
(1.37281 -0.0713097 0)
(1.36109 -0.0737792 0)
(1.34905 -0.0757697 0)
(1.33667 -0.0772803 0)
(1.32422 -0.078345 0)
(1.31148 -0.0789614 0)
(1.29901 -0.0792065 0)
(1.28604 -0.0790249 0)
(1.274 -0.0785993 0)
(1.26064 -0.0776938 0)
(1.2499 -0.0768141 0)
(1.23524 -0.0751487 0)
(1.22775 -0.074216 0)
(1.20886 -0.0713919 0)
(1.42851 -0.0387002 0)
(1.42162 -0.0431547 0)
(1.41331 -0.0474015 0)
(1.4039 -0.0512077 0)
(1.39381 -0.0545392 0)
(1.38319 -0.0574351 0)
(1.37214 -0.0599254 0)
(1.36065 -0.0620129 0)
(1.34885 -0.0637006 0)
(1.33671 -0.0649869 0)
(1.32448 -0.0658996 0)
(1.31196 -0.066436 0)
(1.29969 -0.06666 0)
(1.28692 -0.0665242 0)
(1.27506 -0.0661821 0)
(1.26188 -0.0654343 0)
(1.25129 -0.0647062 0)
(1.23681 -0.0633138 0)
(1.22941 -0.0625359 0)
(1.21074 -0.0601617 0)
(1.42724 -0.0315308 0)
(1.42017 -0.0351313 0)
(1.41196 -0.0385695 0)
(1.40277 -0.0416571 0)
(1.39289 -0.0443647 0)
(1.38247 -0.0467224 0)
(1.37161 -0.0487535 0)
(1.3603 -0.0504595 0)
(1.34869 -0.051842 0)
(1.33674 -0.0528992 0)
(1.32469 -0.0536533 0)
(1.31235 -0.0541015 0)
(1.30025 -0.0542952 0)
(1.28764 -0.0541958 0)
(1.27593 -0.0539274 0)
(1.2629 -0.0533276 0)
(1.25243 -0.0527424 0)
(1.2381 -0.0516143 0)
(1.23078 -0.0509851 0)
(1.21229 -0.0490529 0)
(1.42626 -0.0244376 0)
(1.41904 -0.0272142 0)
(1.4109 -0.0298672 0)
(1.40189 -0.0322523 0)
(1.39218 -0.0343468 0)
(1.38191 -0.0361733 0)
(1.37118 -0.037749 0)
(1.36002 -0.0390745 0)
(1.34855 -0.0401506 0)
(1.33675 -0.0409758 0)
(1.32485 -0.0415664 0)
(1.31265 -0.0419207 0)
(1.30068 -0.0420775 0)
(1.2882 -0.0420074 0)
(1.27661 -0.0418052 0)
(1.2637 -0.0413463 0)
(1.25332 -0.0408969 0)
(1.23912 -0.0400268 0)
(1.23187 -0.0395414 0)
(1.21353 -0.0380453 0)
(1.42553 -0.0174111 0)
(1.41821 -0.0193858 0)
(1.41012 -0.0212701 0)
(1.40123 -0.0229638 0)
(1.39164 -0.024452 0)
(1.38148 -0.0257514 0)
(1.37086 -0.0268739 0)
(1.3598 -0.0278195 0)
(1.34845 -0.0285882 0)
(1.33675 -0.029179 0)
(1.32496 -0.0296027 0)
(1.31286 -0.0298589 0)
(1.30099 -0.0299735 0)
(1.28861 -0.0299279 0)
(1.27711 -0.0297858 0)
(1.26429 -0.0294637 0)
(1.25399 -0.0291435 0)
(1.23987 -0.0285287 0)
(1.23267 -0.0281807 0)
(1.21445 -0.0271185 0)
(1.42502 -0.0103924 0)
(1.41764 -0.0115921 0)
(1.40959 -0.0127284 0)
(1.40078 -0.0137452 0)
(1.39128 -0.0146367 0)
(1.38119 -0.015415 0)
(1.37063 -0.0160876 0)
(1.35965 -0.0166549 0)
(1.34837 -0.0171161 0)
(1.33675 -0.0174714 0)
(1.32503 -0.017726 0)
(1.313 -0.0178815 0)
(1.30119 -0.0179504 0)
(1.28887 -0.0179264 0)
(1.27743 -0.0178395 0)
(1.26468 -0.0176525 0)
(1.25442 -0.0174547 0)
(1.24037 -0.017097 0)
(1.2332 -0.0168769 0)
(1.21506 -0.016253 0)
(1.42471 -0.00334505 0)
(1.41732 -0.00378615 0)
(1.4093 -0.00419129 0)
(1.40055 -0.00454668 0)
(1.3911 -0.00485405 0)
(1.38104 -0.00511995 0)
(1.37052 -0.00534837 0)
(1.35957 -0.00554034 0)
(1.34833 -0.0056959 0)
(1.33674 -0.00581571 0)
(1.32506 -0.00590123 0)
(1.31307 -0.00595408 0)
(1.30129 -0.00597696 0)
(1.28901 -0.00597033 0)
(1.27759 -0.00594026 0)
(1.26487 -0.00588055 0)
(1.25464 -0.00581142 0)
(1.24062 -0.00569743 0)
(1.23346 -0.00561794 0)
(1.21536 -0.00541656 0)
(1.4929 0.107078 3.77523e-22)
(1.51015 0.080108 0)
(1.52333 0.0518071 6.87513e-23)
(1.53273 0.0222648 2.23605e-21)
(1.53802 -0.00824517 -1.21962e-20)
(1.53949 -0.0394899 0)
(1.53734 -0.0714765 -1.82431e-20)
(1.52261 -0.10433 0)
(1.51536 -0.136121 -2.34887e-20)
(1.4376 -0.175344 3.53439e-22)
(1.4814 0.0941728 -7.87783e-22)
(1.49687 0.070526 5.77045e-23)
(1.50936 0.0456305 -5.78178e-23)
(1.51714 0.0197602 -1.85206e-21)
(1.52404 -0.0072202 1.97095e-21)
(1.52268 -0.0350179 2.47411e-22)
(1.52884 -0.0629573 0)
(1.50962 -0.0941517 1.27587e-20)
(1.5242 -0.118974 0)
(1.46959 -0.159839 1.74497e-20)
(1.47322 0.0819614 1.75181e-21)
(1.48603 0.0608682 0)
(1.49781 0.0387991 -4.39772e-23)
(1.50283 0.0156409 -1.63307e-21)
(1.5115 -0.00778288 -2.22038e-21)
(1.50653 -0.0332747 0)
(1.51752 -0.0561077 -6.284e-21)
(1.49793 -0.0862591 -1.29983e-20)
(1.51444 -0.104729 0)
(1.48355 -0.143246 -1.72722e-20)
(1.46739 0.0713669 -8.52735e-22)
(1.4778 0.0523755 3.19771e-21)
(1.48886 0.0330986 0)
(1.49153 0.0120766 1.21816e-21)
(1.50068 -0.00771173 -2.6616e-23)
(1.49434 -0.0315031 1.40421e-22)
(1.50492 -0.0498041 6.25972e-21)
(1.48981 -0.0782955 1.9337e-22)
(1.49972 -0.0933754 7.88296e-21)
(1.48404 -0.127485 0)
(1.46314 0.0621192 0)
(1.47181 0.0449833 -3.12973e-21)
(1.48183 0.0283054 -3.2358e-21)
(1.48336 0.0090885 2.94786e-22)
(1.49127 -0.00759906 -1.60357e-22)
(1.48578 -0.0296521 2.28825e-23)
(1.49271 -0.0449827 5.21508e-22)
(1.48278 -0.0708658 2.67184e-22)
(1.48605 -0.0846275 -3.05881e-21)
(1.47746 -0.11401 -6.96788e-21)
(1.45996 0.0539721 1.37688e-21)
(1.46753 0.0385198 2.31301e-22)
(1.47613 0.0240239 -9.52355e-22)
(1.47752 0.00653285 1.72076e-22)
(1.48325 -0.0078988 -3.59122e-21)
(1.4794 -0.0279173 0)
(1.48237 -0.0415871 -6.57715e-22)
(1.47586 -0.0643586 1.50764e-23)
(1.47518 -0.0774025 -7.18057e-21)
(1.46895 -0.102599 1.11025e-20)
(1.45761 0.0467349 -1.38365e-21)
(1.46446 0.0328791 -2.4575e-21)
(1.47152 0.0201275 3.47988e-21)
(1.47314 0.00441316 -5.89457e-21)
(1.47675 -0.00843073 -1.37906e-21)
(1.47421 -0.0262023 -3.26679e-21)
(1.47446 -0.0387992 6.0761e-23)
(1.46949 -0.0585334 -5.71182e-23)
(1.467 -0.0708177 2.26331e-21)
(1.46103 -0.0926186 -4.16232e-21)
(1.45596 0.0402913 0)
(1.46223 0.0279719 5.43483e-21)
(1.46791 0.016635 -5.29181e-22)
(1.46967 0.00271029 2.88609e-21)
(1.47172 -0.00890065 -9.5503e-22)
(1.46983 -0.0244552 7.32178e-21)
(1.46862 -0.0361087 -2.86712e-21)
(1.46405 -0.0532168 0)
(1.46075 -0.0646369 0)
(1.45441 -0.0836909 0)
(1.45489 0.0345686 0)
(1.4606 0.0237041 -5.23313e-21)
(1.46519 0.0135786 -3.18439e-22)
(1.46686 0.00135643 3.58139e-21)
(1.46791 -0.00916483 5.63823e-21)
(1.46616 -0.0227189 -4.51274e-21)
(1.46422 -0.0334162 3.50297e-21)
(1.45958 -0.0483395 -1.8611e-22)
(1.45584 -0.0588259 0)
(1.44911 -0.0755601 1.11882e-21)
(1.45429 0.0295034 2.00836e-22)
(1.45942 0.0199866 3.02286e-21)
(1.46317 0.0109585 4.55871e-21)
(1.4646 0.000287455 -1.91655e-22)
(1.46501 -0.00919379 4.75824e-22)
(1.46313 -0.0210076 -6.21968e-21)
(1.46078 -0.0307168 5.28198e-21)
(1.45599 -0.04378 -2.3797e-22)
(1.45192 -0.0532895 0)
(1.44496 -0.067995 -3.04238e-21)
(1.45403 0.0250298 0)
(1.4586 0.0167444 3.19787e-21)
(1.46171 0.00874707 3.03941e-22)
(1.46281 -0.000532023 0)
(1.46277 -0.00899396 0)
(1.4607 -0.0192825 5.55095e-21)
(1.45805 -0.0279853 -4.37039e-21)
(1.45314 -0.0394062 -2.2546e-22)
(1.44879 -0.0479314 1.37073e-22)
(1.44173 -0.0608276 1.99996e-21)
(1.45402 0.0210798 0)
(1.45805 0.0139163 -6.16713e-21)
(1.46065 0.00690361 -6.24734e-21)
(1.46143 -0.00111897 8.92167e-22)
(1.46104 -0.00858034 -5.58778e-22)
(1.45878 -0.0175008 -3.97516e-22)
(1.45588 -0.025202 7.19914e-22)
(1.45091 -0.0351376 4.38227e-21)
(1.44628 -0.0426969 3.67705e-22)
(1.4392 -0.0539501 -1.03955e-22)
(1.45416 0.0176199 0)
(1.45773 0.0114666 3.35322e-21)
(1.4599 0.00539176 -3.47856e-22)
(1.46039 -0.00148445 3.44974e-22)
(1.45971 -0.00797209 0)
(1.4573 -0.0156408 0)
(1.45418 -0.022362 0)
(1.44918 -0.0309312 -4.94875e-21)
(1.44429 -0.0375494 4.56759e-21)
(1.43723 -0.0472831 0)
(1.45437 0.0145064 0)
(1.45754 0.00932167 2.20051e-21)
(1.45937 0.00415782 2.7273e-21)
(1.45962 -0.00165261 3.3689e-21)
(1.4587 -0.00719538 -6.22478e-22)
(1.45617 -0.0136988 3.61472e-21)
(1.45285 -0.0194663 -3.02928e-21)
(1.44784 -0.0267581 0)
(1.44271 -0.0324576 5.90064e-22)
(1.43571 -0.0407639 -4.29834e-21)
(1.45467 0.0116916 -5.14853e-22)
(1.4575 0.0074411 -1.79382e-21)
(1.45903 0.00316045 -3.52872e-21)
(1.45907 -0.00164682 -2.37421e-21)
(1.45794 -0.00627362 0)
(1.45532 -0.0116775 -4.56652e-21)
(1.45183 -0.0165162 4.37528e-21)
(1.44682 -0.0225979 -4.09365e-22)
(1.44149 -0.0273985 -2.28846e-21)
(1.43453 -0.0343467 6.3748e-21)
(1.45498 0.00919899 5.175e-22)
(1.45753 0.00580681 -1.43347e-21)
(1.45881 0.00236813 1.22249e-21)
(1.45869 -0.00148896 -2.91525e-21)
(1.45739 -0.00522791 0)
(1.4547 -0.00958376 0)
(1.45107 -0.013516 4.39012e-22)
(1.44607 -0.0184387 -4.076e-21)
(1.44056 -0.0223575 -2.28031e-21)
(1.43365 -0.0279987 -2.22922e-21)
(1.45528 0.00692928 0)
(1.4576 0.00435542 2.33066e-21)
(1.45869 0.00173205 -8.15434e-22)
(1.45843 -0.00121292 2.61813e-21)
(1.45701 -0.00408698 6.86316e-22)
(1.45426 -0.00743413 -5.27973e-22)
(1.45052 -0.0104785 9.71225e-22)
(1.44553 -0.0142806 2.81363e-21)
(1.43987 -0.0173314 0)
(1.43299 -0.0217004 0)
(1.45553 0.00484356 0)
(1.45768 0.00305696 9.66643e-22)
(1.45862 0.00122478 -1.69866e-21)
(1.45827 -0.000840601 0)
(1.45675 -0.00287152 -1.32779e-21)
(1.45396 -0.00524286 -5.41076e-22)
(1.45015 -0.00741693 -1.47458e-21)
(1.44515 -0.0101301 -4.02097e-22)
(1.43937 -0.0123258 2.17774e-22)
(1.43251 -0.0154508 1.66793e-22)
(1.45571 0.00290576 0)
(1.45773 0.00188856 -9.71296e-22)
(1.45858 0.00084027 -8.44979e-22)
(1.45816 -0.000358207 1.12807e-21)
(1.45658 -0.00155206 6.20126e-22)
(1.45377 -0.00296393 5.84973e-22)
(1.4499 -0.00427484 2.47342e-21)
(1.4449 -0.00592108 -1.74348e-21)
(1.43904 -0.00727286 3.95963e-22)
(1.43217 -0.00918428 0)
(1.45578 0.000918309 0)
(1.45775 0.000683166 4.697e-22)
(1.45855 0.000426973 -4.42845e-22)
(1.4581 0.000101452 4.10337e-22)
(1.45649 -0.000245023 0)
(1.45366 -0.000688429 -5.87924e-22)
(1.44976 -0.00112176 4.82228e-22)
(1.44475 -0.00169007 4.06268e-22)
(1.43883 -0.00218144 0)
(1.43194 -0.0028766 0)
(1.0682 0.298803 0)
(1.04817 0.32919 -4.34864e-20)
(1.0346 0.367031 0)
(1.02431 0.413591 -1.42224e-19)
(1.01492 0.468955 5.57794e-20)
(1.00525 0.534901 2.39788e-21)
(0.992232 0.61134 4.04744e-20)
(0.956212 0.684335 -8.8909e-21)
(0.829007 0.68929 0)
(0.470712 0.42192 3.27676e-20)
(1.12158 0.299244 7.88255e-20)
(1.1064 0.335208 4.34848e-20)
(1.1 0.372132 -3.92671e-20)
(1.09603 0.41767 4.79252e-20)
(1.09297 0.472533 -3.65954e-20)
(1.09081 0.537676 8.57841e-21)
(1.08588 0.612297 -4.3542e-20)
(1.05514 0.680637 -8.02704e-20)
(0.920473 0.677314 -2.10381e-20)
(0.519369 0.404078 -4.6765e-20)
(1.17554 0.294457 -3.31939e-20)
(1.16669 0.331233 3.37547e-20)
(1.1656 0.367415 3.92654e-20)
(1.16652 0.412297 3.94019e-20)
(1.1693 0.466396 3.90718e-20)
(1.17432 0.529943 3.78703e-20)
(1.17659 0.601281 9.95678e-21)
(1.14906 0.662588 3.02082e-20)
(1.00381 0.649448 5.92045e-21)
(0.558783 0.375107 -6.32006e-21)
(1.231 0.285997 6.66095e-20)
(1.22724 0.321728 -3.37531e-20)
(1.22991 0.356367 0)
(1.23488 0.399594 0)
(1.24297 0.451695 0)
(1.25445 0.512361 2.19973e-20)
(1.26243 0.578837 -1.38394e-20)
(1.23523 0.630862 0)
(1.0756 0.606934 -9.08582e-22)
(0.586073 0.336703 3.89725e-21)
(1.28441 0.273358 -1.03132e-20)
(1.28502 0.30701 4.17537e-20)
(1.29101 0.339699 0)
(1.29977 0.380499 0)
(1.31273 0.429431 8.64647e-21)
(1.32965 0.485881 6.46221e-21)
(1.34132 0.546153 1.23821e-20)
(1.31115 0.586725 -1.60535e-21)
(1.13116 0.551038 -1.51689e-20)