/*--------------------------------*- C++ -*----------------------------------*\
| =========                 |                                                 |
| \\      /  F ield         | OpenFOAM: The Open Source CFD Toolbox           |
|  \\    /   O peration     | Version:  4.1                                   |
|   \\  /    A nd           | Web:      www.OpenFOAM.org                      |
|    \\/     M anipulation  |                                                 |
\*---------------------------------------------------------------------------*/
FoamFile
{
    version     2.0;
    format      ascii;
    class       volScalarField;
    location    "0.6";
    object      p;
}
// * * * * * * * * * * * * * * * * * * * * * * * * * * * * * * * * * * * * * //

dimensions      [0 2 -2 0 0 0 0];

internalField   nonuniform List<scalar> 
2000
(
0.302671
0.305386
0.306444
0.30625
0.304904
0.302563
0.299439
0.295683
0.291323
0.286961
0.316885
0.31961
0.32094
0.321127
0.320207
0.318325
0.315686
0.312414
0.30847
0.304488
0.33224
0.334963
0.336561
0.33713
0.336641
0.335222
0.333069
0.330296
0.326858
0.323352
0.348678
0.351385
0.353243
0.354188
0.354127
0.353173
0.351511
0.34925
0.346358
0.343405
0.366133
0.368808
0.370912
0.37222
0.372581
0.372089
0.370923
0.369185
0.36686
0.36448
0.384533
0.387155
0.389487
0.39114
0.39191
0.391877
0.391206
0.39
0.388259
0.386463
0.403793
0.406338
0.408876
0.410853
0.412015
0.412431
0.412254
0.411583
0.410439
0.409229
0.423818
0.42626
0.428981
0.431252
0.432788
0.43364
0.433949
0.433813
0.433271
0.432649
0.444504
0.446813
0.449691
0.452225
0.45411
0.455381
0.456165
0.456559
0.456621
0.456582
0.465733
0.467875
0.470894
0.473654
0.475857
0.477525
0.478768
0.479683
0.480345
0.480879
0.230237
0.23263
0.231951
0.229474
0.225683
0.220826
0.21512
0.208737
0.201803
0.194416
0.231557
0.233979
0.233328
0.230899
0.227159
0.222352
0.216694
0.21036
0.203479
0.196127
0.234216
0.236662
0.236085
0.233752
0.23011
0.2254
0.219838
0.213602
0.206825
0.199544
0.238202
0.240679
0.240214
0.238021
0.234526
0.229961
0.22454
0.218447
0.211826
0.204658
0.243512
0.246026
0.245707
0.243698
0.240394
0.236018
0.230783
0.224877
0.218459
0.211444
0.250141
0.252696
0.252553
0.250768
0.247697
0.243553
0.238547
0.232869
0.226699
0.219886
0.258081
0.260678
0.260738
0.259212
0.256413
0.252543
0.247804
0.242391
0.236508
0.229932
0.267323
0.269959
0.270244
0.269008
0.266516
0.262956
0.258522
0.253411
0.24785
0.241561
0.277852
0.280522
0.28105
0.280133
0.277981
0.274765
0.270669
0.265878
0.260621
0.254508
0.289646
0.292342
0.293129
0.292561
0.290793
0.287982
0.284312
0.279956
0.275075
0.2692
0.186692
0.178483
0.169955
0.161188
0.152213
0.143054
0.133735
0.124279
0.114703
0.105024
0.0952554
0.0854098
0.075498
0.0655331
0.0555343
0.045496
0.0354244
0.0253287
0.0152178
0.00509129
0.188381
0.180058
0.171407
0.162537
0.153467
0.144216
0.134809
0.125268
0.115609
0.105849
0.0960013
0.0860777
0.0760885
0.0660429
0.0559637
0.045846
0.0356951
0.0255205
0.0153316
0.00512847
0.191751
0.183189
0.174294
0.165215
0.155949
0.14651
0.13692
0.127202
0.117372
0.107443
0.0974298
0.0873428
0.0771917
0.0669842
0.05675
0.0464876
0.0361939
0.0258761
0.0155433
0.00519672
0.196796
0.187864
0.17862
0.169244
0.159697
0.149987
0.140138
0.130168
0.120092
0.109923
0.0996735
0.0893549
0.0789785
0.0685524
0.0580559
0.0475486
0.037015
0.0264585
0.0158889
0.00530861
0.203478
0.194014
0.184306
0.174524
0.164583
0.154493
0.14428
0.133959
0.123542
0.11304
0.102463
0.0918225
0.081126
0.0703805
0.0595821
0.0487887
0.0379803
0.0271481
0.0163006
0.00544194
0.211799
0.201669
0.191436
0.181191
0.170798
0.160275
0.149643
0.138913
0.128094
0.117196
0.106229
0.0952021
0.0841242
0.0730045
0.0618426
0.0505901
0.0393731
0.0281402
0.0168908
0.00563423
0.221639
0.210633
0.199721
0.188844
0.177838
0.166741
0.155567
0.144319
0.133003
0.121624
0.110189
0.0987034
0.0871744
0.07561
0.0640193
0.0523998
0.0407211
0.0290996
0.0174692
0.00582343
0.233083
0.221242
0.209725
0.198267
0.186684
0.175014
0.163269
0.151451
0.139568
0.127627
0.115632
0.103591
0.0915078
0.0793889
0.0672404
0.0550649
0.0428474
0.0305627
0.01834
0.00611222
0.245524
0.232429
0.219828
0.207408
0.194992
0.182585
0.170166
0.157722
0.145246
0.132737
0.120194
0.107619
0.0950153
0.0823864
0.0697368
0.0570736
0.044405
0.0317283
0.0189979
0.006314
0.259817
0.247259
0.234202
0.221045
0.207838
0.194608
0.181358
0.168085
0.154786
0.141459
0.128102
0.114716
0.101301
0.0878604
0.0743953
0.0609082
0.0474021
0.0338819
0.0203464
0.00677892
0.270274
0.256249
0.242231
0.228173
0.214198
0.2003
0.18645
0.172632
0.158832
0.145041
0.131252
0.11746
0.103663
0.0898591
0.0760478
0.0622294
0.0484044
0.0345738
0.0207417
0.00691701
0.274434
0.259488
0.244927
0.230505
0.216238
0.202087
0.188016
0.174
0.160024
0.146076
0.132146
0.118229
0.104318
0.09041
0.0765035
0.0625967
0.0486885
0.0347787
0.0208676
0.00695687
0.278065
0.262862
0.24797
0.233232
0.21867
0.204251
0.189935
0.175697
0.161519
0.147387
0.133289
0.119216
0.105163
0.0911233
0.0770931
0.0630697
0.0490508
0.0350347
0.0210202
0.00700639
0.281463
0.266058
0.250889
0.235878
0.221058
0.206395
0.191852
0.177404
0.163032
0.14872
0.134456
0.12023
0.106033
0.0918592
0.0777028
0.0635596
0.0494263
0.0352998
0.0211777
0.00705775
0.284489
0.2689
0.253506
0.238276
0.223242
0.208373
0.193633
0.179
0.164454
0.149979
0.135563
0.121194
0.106863
0.0925627
0.0782867
0.0640297
0.049787
0.0355547
0.021329
0.00710689
0.28718
0.271441
0.255869
0.240462
0.22525
0.210205
0.195294
0.180496
0.165794
0.151171
0.136615
0.122113
0.107657
0.0932375
0.078848
0.0644822
0.0501347
0.0358006
0.0214751
0.00715443
0.289575
0.273715
0.258001
0.242451
0.227091
0.211894
0.196835
0.181893
0.167051
0.152294
0.137609
0.122985
0.108412
0.0938806
0.0793839
0.0649149
0.0504675
0.0360361
0.0216151
0.00720013
0.291699
0.275741
0.259914
0.244247
0.228764
0.21344
0.198253
0.183183
0.168217
0.15334
0.138539
0.123803
0.109122
0.0944867
0.07989
0.0653242
0.0507827
0.0362593
0.021748
0.00724357
0.293574
0.277539
0.261622
0.245861
0.230275
0.214844
0.199546
0.184366
0.169291
0.154306
0.1394
0.124562
0.109783
0.0950525
0.0803632
0.0657074
0.0510781
0.0364688
0.0218727
0.00728445
0.295223
0.279125
0.263137
0.247301
0.231631
0.216108
0.200716
0.185441
0.17027
0.15519
0.140191
0.125262
0.110393
0.0955754
0.0808012
0.0660625
0.0513522
0.0366633
0.0219886
0.00732253
0.296666
0.280518
0.264474
0.248576
0.232837
0.217238
0.201766
0.186409
0.171154
0.155991
0.140909
0.125898
0.110949
0.0960533
0.0812022
0.0663881
0.0516037
0.0368419
0.0220952
0.00735759
0.297918
0.28173
0.265642
0.249696
0.2339
0.218238
0.202699
0.187271
0.171944
0.156709
0.141554
0.126471
0.111451
0.096485
0.0815648
0.0666829
0.0518316
0.0370038
0.0221919
0.00738947
0.298995
0.282776
0.266654
0.25067
0.234827
0.219113
0.203517
0.18803
0.172641
0.157343
0.142126
0.12698
0.111897
0.0968694
0.0818883
0.066946
0.0520353
0.0371487
0.0222784
0.00741804
0.299911
0.283666
0.267519
0.251504
0.235624
0.219867
0.204224
0.188687
0.173247
0.157896
0.142624
0.127424
0.112288
0.0972061
0.0821718
0.0671769
0.0522141
0.0372759
0.0223544
0.0074432
0.300676
0.284412
0.268245
0.252207
0.236297
0.220505
0.204824
0.189245
0.173762
0.158366
0.14305
0.127804
0.112622
0.0974947
0.0824151
0.0673752
0.0523678
0.0373853
0.0224198
0.00746486
0.3013
0.285021
0.268839
0.252783
0.23685
0.22103
0.205318
0.189707
0.174189
0.158757
0.143403
0.12812
0.1129
0.0977351
0.0826179
0.0675406
0.052496
0.0374766
0.0224745
0.00748298
0.301791
0.2855
0.269307
0.253238
0.237287
0.221446
0.205711
0.190073
0.174528
0.159068
0.143685
0.128372
0.113122
0.0979273
0.0827801
0.067673
0.0525987
0.0375498
0.0225183
0.00749751
0.302155
0.285855
0.269655
0.253576
0.237612
0.221756
0.206003
0.190347
0.174782
0.1593
0.143896
0.128561
0.113289
0.0980714
0.0829017
0.0677723
0.0526757
0.0376047
0.0225512
0.00750844
0.302395
0.286091
0.269885
0.2538
0.237828
0.221962
0.206197
0.190528
0.17495
0.159455
0.144036
0.128687
0.113399
0.0981673
0.0829828
0.0678385
0.0527271
0.0376413
0.0225731
0.00751577
0.302528
0.286213
0.270002
0.253913
0.237935
0.222064
0.206294
0.190619
0.175034
0.159532
0.144106
0.128749
0.113455
0.0982153
0.0830233
0.0678716
0.0527528
0.0376596
0.022584
0.00751966
0.481453
0.4571
0.433088
0.409562
0.386661
0.364513
0.343238
0.322953
0.303834
0.285641
0.482239
0.4586
0.435269
0.412384
0.390074
0.368457
0.347635
0.327696
0.308724
0.290138
0.482908
0.459763
0.436903
0.414455
0.392539
0.371266
0.350735
0.331044
0.312345
0.293855
0.48348
0.460791
0.438365
0.416325
0.394785
0.37385
0.353612
0.33416
0.315657
0.297333
0.483986
0.461705
0.439669
0.417994
0.396789
0.376151
0.356169
0.336927
0.318588
0.30044
0.48443
0.462516
0.440832
0.419486
0.398581
0.378212
0.35846
0.339405
0.321199
0.303215
0.484822
0.463241
0.441875
0.420826
0.400192
0.380062
0.360514
0.341623
0.323523
0.305684
0.48517
0.463891
0.442813
0.422034
0.401644
0.381728
0.362359
0.34361
0.325595
0.307876
0.485478
0.464474
0.44366
0.423125
0.402956
0.383231
0.364019
0.34539
0.32744
0.309814
0.485752
0.465001
0.444426
0.424114
0.404143
0.384588
0.365514
0.346984
0.329082
0.311524
0.485995
0.465475
0.445121
0.425011
0.40522
0.385816
0.36686
0.348412
0.33054
0.313027
0.486211
0.465904
0.445751
0.425826
0.406197
0.386928
0.368073
0.349689
0.331833
0.314341
0.486402
0.466291
0.446324
0.426567
0.407085
0.387933
0.369164
0.350829
0.332974
0.315481
0.48657
0.466641
0.446844
0.427241
0.40789
0.388842
0.370145
0.351843
0.333976
0.316463
0.486719
0.466956
0.447316
0.427853
0.408619
0.389662
0.371022
0.35274
0.334849
0.317295
0.486848
0.467239
0.447743
0.428408
0.409279
0.390399
0.371805
0.35353
0.335601
0.31799
0.486959
0.467492
0.448127
0.428907
0.409872
0.391057
0.372495
0.354215
0.336239
0.318552
0.487054
0.467719
0.448476
0.429361
0.410408
0.391649
0.373108
0.354811
0.336773
0.318993
0.48713
0.467907
0.448766
0.429738
0.410852
0.392133
0.373604
0.355282
0.337182
0.319303
0.487203
0.468118
0.449102
0.430179
0.411368
0.392688
0.374153
0.355778
0.33757
0.319539
0.707306
0.70309
0.69817
0.693533
0.689228
0.685261
0.681683
0.678591
0.676444
0.676896
0.688869
0.684495
0.679592
0.67515
0.671029
0.667166
0.663599
0.660413
0.658068
0.658208
0.668863
0.664615
0.659966
0.655766
0.651828
0.648075
0.644528
0.641258
0.638721
0.638548
0.647534
0.643617
0.639338
0.635431
0.631714
0.628102
0.624602
0.621272
0.618561
0.618081
0.62525
0.621724
0.617861
0.614285
0.610824
0.607389
0.603967
0.600607
0.597744
0.596971
0.602188
0.599087
0.595683
0.592475
0.589304
0.58608
0.582772
0.579416
0.57643
0.575379
0.578504
0.575862
0.572953
0.57015
0.567304
0.564326
0.561168
0.557854
0.554776
0.553469
0.554364
0.552211
0.54983
0.547461
0.544975
0.542277
0.539306
0.536077
0.532935
0.531399
0.529935
0.5283
0.526472
0.524566
0.522468
0.520084
0.517338
0.514236
0.51106
0.509322
0.505386
0.50429
0.503037
0.501618
0.499936
0.497897
0.495412
0.492463
0.489319
0.487381
0.811834
0.805004
0.798676
0.79294
0.787896
0.783671
0.780404
0.778235
0.777577
0.779902
0.809911
0.80307
0.796765
0.791045
0.786005
0.781776
0.778496
0.776302
0.775596
0.777901
0.806069
0.799212
0.792954
0.787263
0.782232
0.777994
0.774686
0.77244
0.771661
0.773892
0.800314
0.793449
0.787264
0.781617
0.7766
0.772351
0.769002
0.766682
0.765799
0.767915
0.792677
0.785816
0.77973
0.77414
0.769144
0.764884
0.761485
0.759069
0.758054
0.760017
0.783169
0.776343
0.770386
0.764871
0.759905
0.755638
0.752183
0.749657
0.748483
0.75026
0.771865
0.765095
0.759291
0.753864
0.748941
0.744674
0.741163
0.738515
0.737163
0.738722
0.758726
0.752079
0.746471
0.741164
0.736307
0.732059
0.7285
0.725728
0.724183
0.725497
0.744028
0.73745
0.73204
0.726859
0.722092
0.717883
0.714289
0.711397
0.709651
0.710695
0.727067
0.721046
0.715924
0.710955
0.706358
0.702239
0.698639
0.695639
0.693691
0.694445
0.994988
0.985015
0.97507
0.965145
0.95525
0.945395
0.935589
0.925836
0.916145
0.90654
0.897035
0.887642
0.878378
0.86926
0.86031
0.851551
0.843011
0.834717
0.826702
0.819024
0.99495
0.984898
0.974873
0.964867
0.95489
0.944952
0.935062
0.925222
0.91545
0.905763
0.896172
0.886691
0.877336
0.868124
0.859074
0.850211
0.841559
0.833146
0.824994
0.817173
0.994878
0.984676
0.974499
0.964343
0.954214
0.944122
0.934074
0.924064
0.914126
0.90427
0.894504
0.884842
0.8753
0.865893
0.85664
0.847561
0.838681
0.830024
0.821596
0.813476
0.994763
0.984323
0.973904
0.963502
0.953126
0.942788
0.932489
0.922226
0.912043
0.901937
0.891916
0.881992
0.872179
0.862492
0.852946
0.843558
0.834348
0.825338
0.816512
0.807929
0.994623
0.98389
0.973178
0.962485
0.951816
0.941171
0.93053
0.91997
0.909467
0.899027
0.888662
0.878383
0.868202
0.85813
0.848178
0.838361
0.828692
0.819193
0.809826
0.800576
0.994427
0.98329
0.972163
0.961052
0.949963
0.938892
0.927852
0.916889
0.905978
0.895122
0.884335
0.873624
0.862999
0.852468
0.84204
0.831723
0.821521
0.811455
0.80147
0.791392
0.994228
0.982685
0.971157
0.95965
0.948147
0.9366
0.925144
0.913726
0.902344
0.891009
0.879728
0.868507
0.857349
0.846256
0.83523
0.824269
0.813365
0.802532
0.791733
0.780539
0.993935
0.981794
0.969659
0.957517
0.945348
0.933296
0.921276
0.909277
0.897311
0.885386
0.873504
0.861669
0.849882
0.838143
0.826452
0.814805
0.803192
0.79162
0.780074
0.767809
0.993722
0.981138
0.968505
0.955863
0.943295
0.930734
0.91818
0.905645
0.893133
0.880646
0.868184
0.855745
0.843324
0.830911
0.818491
0.806038
0.793508
0.780853
0.768053
0.754036
0.993258
0.979745
0.966271
0.952838
0.939414
0.926005
0.912615
0.899244
0.885891
0.872554
0.85923
0.845913
0.832592
0.819251
0.805872
0.792427
0.778889
0.765237
0.751474
0.737229
0.993115
0.979347
0.965575
0.951799
0.938026
0.924254
0.910483
0.89671
0.882932
0.869141
0.855329
0.841484
0.827588
0.813618
0.799541
0.785316
0.770883
0.756165
0.741091
0.725423
0.993061
0.979184
0.965306
0.951426
0.937543
0.923656
0.90976
0.895851
0.881923
0.867969
0.853976
0.839931
0.825814
0.811599
0.797256
0.78274
0.767993
0.752932
0.737474
0.721503
0.993003
0.979005
0.965004
0.950997
0.936982
0.922955
0.908912
0.894846
0.880749
0.866613
0.852424
0.838167
0.823822
0.809362
0.794756
0.779964
0.764933
0.749593
0.733893
0.717817
0.992942
0.97882
0.964692
0.950555
0.936405
0.922236
0.908043
0.893819
0.879555
0.865239
0.850858
0.836397
0.821834
0.807144
0.792298
0.777259
0.761983
0.746413
0.730519
0.714336
0.992884
0.978642
0.964392
0.95013
0.935851
0.921548
0.907214
0.892843
0.878423
0.863943
0.849389
0.834745
0.819991
0.805104
0.790055
0.774815
0.759344
0.743598
0.727558
0.711274
0.992827
0.97847
0.964103
0.949721
0.935319
0.92089
0.906424
0.891915
0.877351
0.862721
0.848011
0.833204
0.818283
0.803225
0.788007
0.7726
0.756973
0.741091
0.724939
0.70857
0.992773
0.978306
0.963827
0.949332
0.934814
0.920265
0.905676
0.891039
0.876343
0.861576
0.846725
0.831774
0.816706
0.801501
0.786138
0.770594
0.754841
0.738852
0.722615
0.706181
0.992722
0.978151
0.963566
0.948965
0.934338
0.919677
0.904975
0.89022
0.875404
0.860514
0.845537
0.830458
0.815262
0.799931
0.784447
0.768788
0.752934
0.73686
0.720559
0.704077
0.992674
0.978006
0.963323
0.948622
0.933894
0.919131
0.904324
0.889463
0.874537
0.859536
0.844447
0.829257
0.81395
0.798511
0.782924
0.767172
0.751236
0.735096
0.718747
0.702232
0.99263
0.977871
0.963098
0.948305
0.933485
0.918628
0.903725
0.888768
0.873744
0.858645
0.843457
0.828169
0.812767
0.797236
0.781564
0.765734
0.749732
0.733542
0.717158
0.700619
0.992589
0.977748
0.962892
0.948016
0.933111
0.91817
0.903181
0.888137
0.873027
0.85784
0.842566
0.827193
0.811709
0.796101
0.780356
0.764463
0.748409
0.73218
0.715771
0.699218
0.992552
0.977637
0.962706
0.947755
0.932775
0.917757
0.902692
0.887571
0.872384
0.857121
0.841772
0.826326
0.810772
0.795099
0.779295
0.76335
0.747254
0.730995
0.71457
0.698007
0.992519
0.977537
0.96254
0.947522
0.932475
0.91739
0.902258
0.88707
0.871816
0.856488
0.841074
0.825566
0.809953
0.794225
0.778372
0.762385
0.746256
0.729975
0.713539
0.696972
0.99249
0.97745
0.962394
0.947318
0.932213
0.91707
0.90188
0.886634
0.871323
0.855938
0.840469
0.824909
0.809246
0.793473
0.77758
0.761559
0.745404
0.729107
0.712664
0.696095
0.992465
0.977376
0.96227
0.947144
0.931989
0.916796
0.901556
0.886261
0.870902
0.85547
0.839956
0.824352
0.808648
0.792838
0.776913
0.760866
0.74469
0.728381
0.711935
0.695366
0.992445
0.977313
0.962166
0.946999
0.931803
0.916568
0.901288
0.885952
0.870553
0.855083
0.839532
0.823892
0.808156
0.792316
0.776365
0.760297
0.744107
0.727789
0.711341
0.694774
0.992428
0.977264
0.962083
0.946883
0.931654
0.916387
0.901074
0.885706
0.870276
0.854775
0.839195
0.823528
0.807766
0.791904
0.775933
0.759849
0.743648
0.727324
0.710876
0.694311
0.992416
0.977226
0.962021
0.946796
0.931542
0.916251
0.900913
0.885522
0.870069
0.854545
0.838943
0.823256
0.807476
0.791597
0.775612
0.759517
0.743308
0.72698
0.710532
0.693969
0.992407
0.977202
0.96198
0.946738
0.931468
0.91616
0.900807
0.8854
0.869931
0.854392
0.838776
0.823076
0.807284
0.791394
0.7754
0.759297
0.743083
0.726752
0.710304
0.693744
0.992403
0.977189
0.961959
0.946709
0.931431
0.916115
0.900754
0.885339
0.869862
0.854316
0.838693
0.822986
0.807188
0.791293
0.775294
0.759188
0.742971
0.726639
0.710189
0.693625
0.708521
0.689459
0.669386
0.648079
0.625809
0.602768
0.579106
0.554981
0.530555
0.505991
0.704644
0.684722
0.664708
0.643906
0.622233
0.59986
0.576914
0.553529
0.529854
0.50604
0.701019
0.681324
0.661696
0.641296
0.620016
0.598068
0.575579
0.552679
0.529506
0.506202
0.697581
0.67814
0.658779
0.638718
0.617825
0.5963
0.574263
0.55183
0.529133
0.506305
0.694529
0.675368
0.65626
0.636486
0.61592
0.594755
0.573104
0.551077
0.528798
0.506392
0.691806
0.672905
0.654006
0.634477
0.614202
0.593357
0.572052
0.550389
0.528485
0.506459
0.689398
0.670729
0.652006
0.632683
0.61266
0.592097
0.571098
0.549761
0.528194
0.506511
0.687277
0.668804
0.650223
0.631073
0.611268
0.590954
0.570229
0.549184
0.527922
0.506548
0.685414
0.667102
0.648633
0.629626
0.61001
0.589915
0.569434
0.548652
0.527665
0.506574
0.683783
0.665597
0.647213
0.628323
0.608869
0.588967
0.568703
0.548158
0.527423
0.50659
0.682359
0.664269
0.645944
0.627147
0.607831
0.588099
0.56803
0.5477
0.527193
0.506596
0.681123
0.663097
0.64481
0.626086
0.606887
0.587302
0.567407
0.547272
0.526975
0.506594
0.680056
0.662067
0.643799
0.625127
0.606025
0.58657
0.566831
0.546873
0.526766
0.506584
0.679142
0.661164
0.642897
0.624261
0.605239
0.585896
0.566296
0.546498
0.526566
0.506568
0.67837
0.660379
0.642096
0.62348
0.604521
0.585276
0.565799
0.546146
0.526374
0.506545
0.677728
0.6597
0.641387
0.622777
0.603867
0.584704
0.565337
0.545815
0.52619
0.506516
0.677209
0.659122
0.640766
0.622149
0.603274
0.58418
0.564909
0.545505
0.526013
0.506482
0.676804
0.658635
0.64022
0.621583
0.60273
0.583692
0.564506
0.545208
0.525839
0.506441
0.676516
0.658255
0.639779
0.621117
0.602276
0.58328
0.564162
0.544953
0.525688
0.506402
0.676302
0.657891
0.639303
0.620579
0.601729
0.58277
0.563726
0.544621
0.525481
0.506333
)
;

boundaryField
{
    bottom
    {
        type            symmetryPlane;
    }
    right
    {
        type            fixedValue;
        value           uniform 0;
    }
    top
    {
        type            symmetryPlane;
    }
    left
    {
        type            fixedValue;
        value           uniform 1;
    }
    cylinder
    {
        type            zeroGradient;
    }
    defaultFaces
    {
        type            empty;
    }
}


// ************************************************************************* //
