/*--------------------------------*- C++ -*----------------------------------*\
| =========                 |                                                 |
| \\      /  F ield         | OpenFOAM: The Open Source CFD Toolbox           |
|  \\    /   O peration     | Version:  4.1                                   |
|   \\  /    A nd           | Web:      www.OpenFOAM.org                      |
|    \\/     M anipulation  |                                                 |
\*---------------------------------------------------------------------------*/
FoamFile
{
    version     2.0;
    format      ascii;
    class       surfaceScalarField;
    location    "0.6";
    object      phi;
}
// * * * * * * * * * * * * * * * * * * * * * * * * * * * * * * * * * * * * * //

dimensions      [0 3 -1 0 0 0 0];

internalField   nonuniform List<scalar> 
3890
(
0.000286238
-0.0038048
0.00351856
0.000812286
-0.00721123
0.00668518
0.00141555
-0.00842229
0.00781902
0.00202553
-0.00861864
0.00800865
0.00261666
-0.00842817
0.00783704
0.00318116
-0.0081345
0.00757
0.00371633
-0.00784382
0.00730865
0.00422338
-0.00758424
0.00707718
0.00471432
-0.00735752
0.00686659
-0.00715897
0.00669026
0.00518303
0.000265607
-0.00407041
0.000748696
-0.00769431
0.00129885
-0.00897244
0.00185226
-0.00917205
0.00238655
-0.00896246
0.00289592
-0.00864388
0.00338044
-0.00832834
0.00384422
-0.00804802
0.00429622
-0.00780952
-0.0076169
0.00475415
0.000243389
-0.0043138
0.000680907
-0.00813183
0.00117568
-0.00946722
0.00167139
-0.00966776
0.0021495
-0.00944056
0.00260647
-0.00910084
0.00304399
-0.00876586
0.00346618
-0.00847021
0.00387812
-0.00822146
-0.00802093
0.00428215
0.00021963
-0.00453343
0.000609075
-0.00852127
0.0010461
-0.00990424
0.00148211
-0.0101038
0.00190225
-0.00986071
0.00230459
-0.00950318
0.00269125
-0.00915253
0.0030655
-0.00884446
0.0034302
-0.00858615
-0.00837592
0.00378519
0.000194339
-0.00472777
0.0005333
-0.00886023
0.000910143
-0.0102811
0.00128414
-0.0104778
0.00164396
-0.0102205
0.00198887
-0.00984809
0.00232106
-0.00948472
0.00264312
-0.00916652
0.00295685
-0.00889988
-0.00868087
0.0032618
0.000167528
-0.0048953
0.000453686
-0.00914639
0.000768012
-0.0105954
0.00107772
-0.0107875
0.00137486
-0.0105177
0.00165973
-0.010133
0.00193453
-0.00975951
0.00220139
-0.00943338
0.00246164
-0.00916013
-0.00893409
0.00271486
0.000139243
-0.00503454
0.000370427
-0.00937757
0.000620119
-0.0108451
0.000863494
-0.0110308
0.00109586
-0.01075
0.00131846
-0.0103556
0.00153346
-0.00997451
0.00174267
-0.00964259
0.0019471
-0.00936456
-0.00913339
0.00214641
0.000109584
-0.00514412
0.000283865
-0.00955186
0.000467112
-0.0110284
0.000642437
-0.0112062
0.000808315
-0.0109159
0.000966845
-0.0105141
0.00112011
-0.0101278
0.00126962
-0.0097921
0.00141612
-0.00951106
-0.00927658
0.00155931
7.87351e-05
-0.00522286
0.000194506
-0.00966762
0.000309875
-0.0111437
0.000415847
-0.0113121
0.000513966
-0.011014
0.000607092
-0.0106072
0.000697202
-0.0102179
0.000785457
-0.00988036
0.000872342
-0.00959794
-0.00936184
0.000957596
4.70329e-05
-0.00526989
0.000103242
-0.00972383
0.000149681
-0.0111902
0.000185308
-0.0113478
0.000214824
-0.0110435
0.000241739
-0.0106341
0.000267832
-0.010244
0.000293853
-0.00990638
0.000320026
-0.00962411
0.000346255
-0.00938807
0.000376003
-0.000376002
0.00109978
-0.000723781
0.00194967
-0.00084989
0.00282082
-0.000871143
0.0036712
-0.000850386
0.00448828
-0.000817078
0.00527132
-0.000783044
0.00602346
-0.000752138
0.00674828
-0.000724816
-0.00069948
0.00744776
0.000375238
-0.000751242
0.00109494
-0.00144349
0.00194113
-0.00169608
0.00280849
-0.0017385
0.00365509
-0.00169699
0.00446858
-0.00163056
0.00524823
-0.0015627
0.00599713
-0.00150103
0.00671888
-0.00144657
-0.0013962
0.0074156
0.000372386
-0.00112363
0.00108631
-0.00215741
0.00192482
-0.00253459
0.00278419
-0.00259787
0.00362311
-0.00253591
0.00442938
-0.00243683
0.00520224
-0.00233556
0.00594467
-0.00224346
0.00666028
-0.00216218
-0.00208738
0.00735146
0.000368282
-0.00149191
0.00107307
-0.0028622
0.00190005
-0.00336158
0.00274744
-0.00344526
0.0035749
-0.00336336
0.00437049
-0.00323243
0.00513337
-0.00309844
0.00586619
-0.00297628
0.00657238
-0.00286836
-0.00276927
0.00725426
0.000362734
-0.00185464
0.00105502
-0.00355449
0.00186641
-0.00417297
0.00269774
-0.00427659
0.00351002
-0.00417564
0.0042918
-0.0040142
0.00504208
-0.00384872
0.00576306
-0.00369726
0.00645764
-0.00356295
-0.00343999
0.00712835
0.000355561
-0.0022102
0.00103174
-0.00423066
0.00182316
-0.00496439
0.00263409
-0.00508752
0.00342743
-0.00496898
0.00419247
-0.00477925
0.00492813
-0.00458438
0.00563566
-0.0044048
0.00631644
-0.00424372
-0.00409492
0.00697138
0.000346519
-0.00255672
0.00100255
-0.00488669
0.00176908
-0.00573092
0.00255475
-0.00587319
0.003325
-0.00573923
0.00407054
-0.00552479
0.00479078
-0.00530462
0.00548619
-0.00510021
0.0061557
-0.00491323
-0.00473728
0.00679806
0.000335282
-0.00289201
0.000966553
-0.00551797
0.00170247
-0.00646683
0.00245683
-0.00662755
0.00319838
-0.00648079
0.00392009
-0.0062465
0.00462293
-0.00600746
0.00530724
-0.00578452
0.00596796
-0.00557394
-0.00536152
0.0065922
0.000321507
-0.00321351
0.0009228
-0.00611926
0.0016213
-0.00716533
0.0023364
-0.00734266
0.00304035
-0.00718473
0.00372911
-0.00693526
0.00440759
-0.00668593
0.00508095
-0.00645788
0.00574794
-0.00624093
-0.00599833
0.00638475
0.000305049
0.000870965
0.00152466
0.00219066
0.00284297
0.0034777
0.00410042
0.00471972
0.00534538
0.00603732
0.00772921
-0.000281458
0.00796975
-0.00024054
0.00817192
-0.000202166
0.00834084
-0.000168925
0.00848123
-0.000140388
0.00859693
-0.000115709
0.00869121
-9.42736e-05
0.00876676
-7.55555e-05
0.00882585
-5.90857e-05
0.00887031
-4.446e-05
0.00890162
-3.1318e-05
0.00892091
-1.92884e-05
0.00892865
-7.74206e-06
0.00892611
2.5442e-06
0.00891709
9.01839e-06
0.00890158
1.55113e-05
0.00887981
2.17715e-05
0.00885206
2.77474e-05
0.00881881
3.32494e-05
3.73791e-05
0.00769859
-0.000564439
0.00793999
-0.00048194
0.00814284
-0.000405013
0.00831284
-0.000338927
0.00845461
-0.000282161
0.00857194
-0.000233034
0.00866805
-0.000190379
0.00874563
-0.000153141
0.00880693
-0.000120383
0.00885378
-9.1314e-05
0.0088877
-6.52384e-05
0.00890989
-4.14745e-05
0.00892122
-1.90676e-05
0.00892118
2.57681e-06
0.00891476
1.5445e-05
0.0089018
2.8469e-05
0.00888256
4.10099e-05
0.00885734
5.29705e-05
0.0088266
6.39866e-05
7.22819e-05
0.00763736
-0.000850339
0.00788052
-0.00072511
0.00808515
-0.000609639
0.00825769
-0.000511465
0.00840247
-0.000426943
0.00852316
-0.000353725
0.00862297
-0.000290191
0.00870457
-0.000234742
0.00877017
-0.000185984
0.00882161
-0.000142754
0.00886041
-0.000104033
0.00888778
-6.88468e-05
0.00890471
-3.59986e-05
0.00890986
-2.57086e-06
0.00890755
1.77491e-05
0.00889928
3.6744e-05
0.00888508
5.52137e-05
0.0088651
7.29421e-05
0.00883969
8.94054e-05
0.000102026
0.00754261
-0.00113869
0.00778728
-0.000969771
0.00799439
-0.00081675
0.00817072
-0.000687802
0.00832011
-0.000576326
0.00844608
-0.000479703
0.00855177
-0.000395877
0.00863972
-0.000322691
0.00871207
-0.000258332
0.00877062
-0.000201305
0.0088169
-0.000150315
0.00885223
-0.000104176
0.00887785
-6.16221e-05
0.00889548
-2.01949e-05
0.00890032
1.29014e-05
0.00889957
3.74952e-05
0.00889285
6.19316e-05
0.00888038
8.5414e-05
0.00886252
0.000107264
0.000124088
0.00741825
-0.00142858
0.00766427
-0.00121579
0.007875
-0.00102749
0.00805655
-0.00086935
0.00821201
-0.000731782
0.00834482
-0.000612512
0.00845797
-0.000509035
0.00855395
-0.000418667
0.00863484
-0.000339223
0.00870243
-0.000268896
0.00875824
-0.000206126
0.00880359
-0.000149519
0.00883967
-9.77027e-05
0.00886839
-4.89165e-05
0.00888194
-6.4955e-07
0.00889043
2.90075e-05
0.00889383
5.85339e-05
0.00889197
8.7267e-05
0.00888498
0.000114263
0.000135645
0.00725831
-0.00171551
0.00750344
-0.00146092
0.00771781
-0.00124186
0.00790576
-0.0010573
0.00806952
-0.000895544
0.00821206
-0.000755045
0.00833584
-0.000632814
0.00844299
-0.000525824
0.00853545
-0.000431675
0.00861489
-0.000348346
0.00868286
-0.000274087
0.0087407
-0.000207366
0.00878979
-0.000146788
0.00883188
-9.10108e-05
0.00886945
-3.82211e-05
0.00888867
9.79513e-06
0.00890489
4.23076e-05
0.00891562
7.65348e-05
0.00892116
0.000108724
0.00013423
0.0070772
-0.00199466
0.00732028
-0.001704
0.00753751
-0.00145909
0.00773052
-0.00125031
0.00790133
-0.00106636
0.00805271
-0.000906419
0.00818683
-0.000766939
0.00830561
-0.000644603
0.00841072
-0.000536791
0.00850366
-0.000441277
0.00858572
-0.000356148
0.00865809
-0.000279741
0.00872187
-0.000210564
0.00877811
-0.000147254
0.00882849
-8.85992e-05
0.00887062
-3.23381e-05
0.00889776
1.51741e-05
0.00892406
5.02305e-05
0.00894611
8.66718e-05
0.00011666
0.00685045
-0.00225291
0.00709097
-0.00194452
0.0073158
-0.00168393
0.00752092
-0.00145543
0.00770629
-0.00125173
0.00787299
-0.00107311
0.00802249
-0.000916441
0.00815658
-0.0007787
0.00827704
-0.000657251
0.00838549
-0.00054972
0.00848336
-0.000454024
0.00857197
-0.000368343
0.00865249
-0.000291087
0.0087261
-0.000220863
0.00879404
-0.000156545
0.0088591
-9.73974e-05
0.00891635
-4.20765e-05
0.0089571
9.48101e-06
0.00899713
4.66422e-05
8.00416e-05
0.0066157
-0.00248386
0.00684382
-0.00217264
0.00706146
-0.00190157
0.00726566
-0.00165963
0.00745719
-0.00144326
0.00763563
-0.00125156
0.00780083
-0.00108164
0.00795312
-0.000930991
0.00809319
-0.000797315
0.00822194
-0.000678473
0.0083404
-0.000572488
0.00844962
-0.00047756
0.0085506
-0.000392062
0.00864427
-0.000314539
0.00873145
-0.000243725
0.00881276
-0.0001787
0.00888971
-0.000119034
0.00896287
-6.36754e-05
0.00901864
-9.12382e-06
2.30653e-05
0.00627637
-0.00272291
0.00656154
-0.0024578
0.00683006
-0.00217009
0.00706791
-0.00189748
0.00727997
-0.00165532
0.00747214
-0.00144373
0.00764871
-0.00125821
0.00781235
-0.00109463
0.00796483
-0.000949799
0.00810749
-0.000821132
0.00824145
-0.00070645
0.00836773
-0.000603844
0.00848729
-0.000511616
0.008601
-0.00042825
0.00870968
-0.000352407
0.00881392
-0.000282937
0.00891383
-0.000218947
0.00900999
-0.000159833
0.00910706
-0.000106193
-6.395e-05
0.00907142
-0.00234106
-0.00945327
0.0088419
-0.00222829
0.00869181
-0.00202001
0.00858988
-0.00179555
0.00851914
-0.00158458
0.00847017
-0.00139476
0.00843735
-0.00122538
0.00841671
-0.00107399
0.0084052
-0.000938289
0.00840039
-0.000816317
0.00840034
-0.000706404
0.00840355
-0.00060705
0.00840882
-0.000516893
0.00841525
-0.000434682
0.00842213
-0.000359278
0.00842885
-0.000289664
0.00843487
-0.00022496
0.0084396
-0.000164566
0.00844267
-0.00010927
-6.60624e-05
0.00937012
-0.00204007
-0.00967111
0.00911751
-0.00197567
0.00892845
-0.00183094
0.00879171
-0.00165881
0.00869356
-0.00148643
0.00862295
-0.00132415
0.00857228
-0.00117471
0.00853636
-0.00103808
0.00851151
-0.000913435
0.00849497
-0.000799774
0.00848462
-0.000696058
0.00847883
-0.000601258
0.0084763
-0.000514367
0.00847603
-0.000434411
0.00847721
-0.00036046
0.00847919
-0.000291642
0.00848141
-0.000227172
0.00848339
-0.000166554
0.00848483
-0.000110705
-6.68098e-05
0.00950874
-0.00180628
-0.00974253
0.00928603
-0.00175296
0.00910172
-0.00164663
0.00895785
-0.00151495
0.00884803
-0.0013766
0.00876468
-0.0012408
0.00870156
-0.00111159
0.00865397
-0.000990482
0.00861836
-0.00087783
0.00859205
-0.00077346
0.00857292
-0.000676933
0.00855933
-0.000587664
0.00854995
-0.000504989
0.00854374
-0.000428199
0.00853985
-0.000356575
0.00853761
-0.000289403
0.00853646
-0.000226021
0.00853596
-0.000166056
0.0085358
-0.000110543
-6.6696e-05
0.00959406
-0.00160219
-0.00979815
0.00940091
-0.00155981
0.00923245
-0.00147817
0.0090931
-0.0013756
0.00898081
-0.00126432
0.00889139
-0.00115138
0.0088206
-0.0010408
0.00876482
-0.000934702
0.00872109
-0.000834103
0.00868703
-0.000739398
0.0086607
-0.000650607
0.00864055
-0.000567511
0.0086253
-0.000489742
0.00861394
-0.000416832
0.00860562
-0.000348255
0.00859967
-0.000283456
0.00859555
-0.000221905
0.00859284
-0.000163346
0.00859121
-0.000108912
-6.5811e-05
0.00965835
-0.00142154
-0.00983901
0.00948717
-0.00138863
0.00933394
-0.00132494
0.00920229
-0.00124395
0.0090919
-0.00115392
0.0090006
-0.00106009
0.00892575
-0.00096595
0.00886476
-0.000873708
0.00881532
-0.000784663
0.00877546
-0.000699537
0.00874351
-0.000618656
0.00871807
-0.000542076
0.00869799
-0.000469662
0.00868231
-0.000401148
0.00867023
-0.000336181
0.00866113
-0.00027435
0.00865447
-0.000215251
0.00864986
-0.000158737
0.00864696
-0.000106009
-6.416e-05
0.00970822
-0.00125893
-0.00987083
0.00955424
-0.00123465
0.00941422
-0.00118493
0.00929082
-0.00112055
0.00918432
-0.00104741
0.00909366
-0.000969435
0.00901726
-0.000889541
0.00895332
-0.000809771
0.00890014
-0.000731485
0.00885616
-0.000655556
0.00882
-0.000582493
0.00879046
-0.000512535
0.00876652
-0.000445723
0.00874732
-0.000381951
0.00873215
-0.000321006
0.0087204
-0.000262606
0.00871161
-0.000206462
0.00870539
-0.000152518
0.0087014
-0.000102013
-6.18372e-05
0.00974624
-0.00111208
-0.00989309
0.00960666
-0.00109508
0.00947823
-0.0010565
0.00936292
-0.00100524
0.0092612
-0.000945702
0.00917267
-0.000880903
0.00909638
-0.000813253
0.00903117
-0.000744555
0.0089758
-0.000676111
0.00892907
-0.000608831
0.00888989
-0.000543315
0.00885727
-0.000479916
0.00883034
-0.000418794
0.00880836
-0.000359964
0.00879068
-0.000303326
0.00877677
-0.000248704
0.00876622
-0.000195905
0.00875865
-0.000144953
0.00875373
-9.70953e-05
-5.89417e-05
0.00977449
-0.000979202
-0.00990737
0.00964746
-0.000968048
0.00952934
-0.000938375
0.00942171
-0.000897608
0.00932514
-0.000849139
0.00923958
-0.000795337
0.00916451
-0.000738185
0.0090992
-0.000679245
0.00904279
-0.000619705
0.00899441
-0.000560449
0.0089532
-0.000502104
0.00891837
-0.000445084
0.0088892
-0.000389625
0.00886506
-0.000335826
0.00884541
-0.000283672
0.00882978
-0.000233073
0.00881779
-0.000183915
0.00880912
-0.000136285
0.00880344
-9.14133e-05
-5.55651e-05
0.00979486
-0.000858766
-0.0099153
0.00967891
-0.000852098
0.00957004
-0.000829506
0.00946962
-0.000797182
0.00937825
-0.000757777
0.0092961
-0.000713179
0.00922294
-0.000665029
0.00915835
-0.000614658
0.00910177
-0.000563122
0.00905257
-0.000511246
0.00901011
-0.000459644
0.00897377
-0.000408751
0.00894299
-0.000358846
0.00891725
-0.000310081
0.00889608
-0.000262505
0.0088791
-0.000216092
0.00886598
-0.00017079
0.00885642
-0.000126732
0.00885012
-8.51114e-05
-5.17944e-05
0.00980904
-0.000749304
-0.00991851
0.0097029
-0.000745954
0.00960234
-0.000728947
0.00950859
-0.000703428
0.00942228
-0.000671474
0.00934371
-0.000634605
0.00927286
-0.00059418
0.00920953
-0.000551326
0.00915337
-0.000506966
0.00910397
-0.000461845
0.00906087
-0.000416542
0.0090236
-0.000371485
0.00899173
-0.000326972
0.00896483
-0.000283185
0.00894254
-0.000240215
0.00892454
-0.000198083
0.00891053
-0.000156786
0.00890028
-0.000116485
0.00889349
-7.83176e-05
-4.77084e-05
0.0098185
-0.000649441
-0.00991836
0.00972099
-0.000648449
0.00962786
-0.000635811
0.0095402
-0.000615774
0.00945869
-0.000589962
0.00938369
-0.000559603
0.00931533
-0.000525823
0.00925357
-0.000489569
0.00919825
-0.000451638
0.00914909
-0.000412688
0.00910579
-0.000373248
0.00906803
-0.000333724
0.00903547
-0.000294411
0.00900779
-0.000255506
0.0089847
-0.000217125
0.00896594
-0.000179319
0.00895127
-0.00014212
0.0089405
-0.000105707
0.00893332
-7.11425e-05
-4.33757e-05
0.00982442
-0.000557889
-0.00991597
0.00973447
-0.000558494
0.0096479
-0.000549245
0.00956575
-0.00053362
0.00948867
-0.000512883
0.00941709
-0.000488029
0.00935125
-0.000459984
0.00929123
-0.000429542
0.00923697
-0.00039738
0.00918835
-0.000364071
0.00914519
-0.000330085
0.00910726
-0.000295794
0.00907432
-0.000261478
0.00904615
-0.000227335
0.00902252
-0.000193491
0.00900322
-0.000160019
0.00898807
-0.000126971
0.0089769
-9.45342e-05
0.00896944
-6.36794e-05
-3.88548e-05
0.00982778
-0.000473453
-0.00991222
0.00974436
-0.000475068
0.00966354
-0.000468425
0.00958627
-0.00045635
0.00951321
-0.000439822
0.00944482
-0.000419644
0.00938142
-0.000396576
0.00932315
-0.000371276
0.00927008
-0.00034431
0.00922218
-0.00031617
0.00917936
-0.000287264
0.00914149
-0.000257923
0.00910841
-0.000228402
0.00907997
-0.00019889
0.00905599
-0.000169516
0.00903633
-0.000140359
0.00902084
-0.000111485
0.00900939
-8.30765e-05
0.00900171
-5.60048e-05
-3.41941e-05
0.00982934
-0.000395034
-0.00990776
0.0097515
-0.00039722
0.00967563
-0.000392564
0.00960263
-0.000383346
0.00953313
-0.000370324
0.00946763
-0.000354144
0.00940648
-0.000335425
0.00934991
-0.000314704
0.00929805
-0.000292448
0.00925094
-0.000269067
0.00920859
-0.000244908
0.00917093
-0.000220259
0.00913787
-0.000195343
0.00910931
-0.000170332
0.00908514
-0.000145348
0.00906525
-0.000120471
0.00904954
-9.57728e-05
0.00903788
-7.14215e-05
0.00903006
-4.81798e-05
-2.94325e-05
0.00982968
-0.000321644
-0.00990307
0.00975653
-0.000324068
0.00968488
-0.000320909
0.00961552
-0.000313993
0.00954911
-0.00030391
0.00948614
-0.000291179
0.00942701
-0.000276296
0.009372
-0.000259688
0.00932128
-0.000241734
0.00927498
-0.000222765
0.00923314
-0.000203069
0.00919577
-0.000182883
0.00916282
-0.0001624
0.00913426
-0.000141767
0.00911
-0.000121092
0.00908999
-0.000100454
0.00907413
-7.99183e-05
0.00906235
-5.96357e-05
0.00905442
-4.02519e-05
-2.46007e-05
0.00982926
-0.00025236
-0.00989855
0.00975999
-0.000254793
0.00969182
-0.00025274
0.00962551
-0.000247678
0.00956168
-0.000240082
0.00950086
-0.000230362
0.00944347
-0.000218904
0.00938982
-0.000206037
0.00934014
-0.000192053
0.00929458
-0.000177211
0.00925325
-0.000161738
0.00921619
-0.000145823
0.00918341
-0.000129623
0.00915491
-0.000113257
0.00913063
-9.68189e-05
0.00911055
-8.03739e-05
0.00909461
-6.39815e-05
0.00908275
-4.77681e-05
0.00907475
-3.22566e-05
-1.9722e-05
0.00982844
-0.000186455
-0.00989435
0.00976229
-0.00018864
0.00969691
-0.000187364
0.00963303
-0.000183793
0.00957128
-0.000178329
0.0095122
-0.000171282
0.00945622
-0.000162932
0.0094037
-0.000153516
0.00935489
-0.000143243
0.00930999
-0.000132303
0.00926911
-0.000120863
0.00923235
-0.000109064
0.00919975
-9.70231e-05
0.00917133
-8.48334e-05
0.00914707
-7.25657e-05
0.00912697
-6.02729e-05
0.00911099
-4.80024e-05
0.00909908
-3.58525e-05
0.00909104
-2.42193e-05
-1.48139e-05
0.00982768
-0.000122922
-0.00989121
0.00976388
-0.000124836
0.00970056
-0.00012405
0.00963847
-0.000121699
0.00957825
-0.000118113
0.00952047
-0.000113501
0.00946557
-0.000108035
0.00941392
-0.00010186
0.00936579
-9.51104e-05
0.00932139
-8.79065e-05
0.00928088
-8.03575e-05
0.00924438
-7.25568e-05
0.00921194
-6.45823e-05
0.0091836
-5.64966e-05
0.00915938
-4.83482e-05
0.00913928
-4.01734e-05
0.00912328
-3.20054e-05
0.00911134
-2.39111e-05
0.00910328
-1.61576e-05
-9.88953e-06
0.00982739
-6.17322e-05
-0.00988857
0.00976512
-6.25688e-05
0.00970308
-6.20077e-05
0.00964209
-6.07112e-05
0.00958285
-5.8871e-05
0.00952591
-5.6563e-05
0.00947172
-5.38482e-05
0.00942065
-5.0787e-05
0.00937298
-4.74395e-05
0.00932893
-4.38635e-05
0.00928869
-4.0112e-05
0.00925236
-3.62311e-05
0.00922004
-3.22597e-05
0.00919177
-2.82293e-05
0.00916759
-2.41642e-05
0.0091475
-2.00831e-05
0.0091315
-1.6003e-05
0.00911954
-1.19567e-05
0.00911147
-8.0805e-06
-4.96663e-06
0.00982934
-0.00989108
0.00976677
0.00970477
0.00964406
0.00958518
0.00952862
0.00947477
0.00942399
0.00937655
0.00933268
0.00929257
0.00925634
0.00922408
0.00919585
0.00917169
0.0091516
0.0091356
0.00912364
0.00911556
0.00920666
0.000336496
-0.0091969
0.00922136
0.000942897
0.00924046
0.00154021
0.00926349
0.00212338
0.00928996
0.00268839
0.00931926
0.0032325
0.00934999
0.00375446
0.00937842
0.00425372
0.0093889
0.00474367
0.00511865
0.00903289
0.000323452
-0.00901984
0.00905907
0.00091671
0.00909778
0.0015015
0.00914808
0.00207308
0.0092089
0.00262756
0.00927934
0.00316207
0.00935915
0.00367465
0.00944876
0.0041641
0.00954801
0.00464442
0.00499555
0.00888891
0.000309857
-0.00887532
0.00891986
0.00088576
0.00896764
0.00145372
0.00903159
0.00200914
0.00911104
0.00254811
0.00920551
0.00306759
0.00931507
0.00356509
0.00944043
0.00403874
0.00958081
0.00450404
0.00483384
0.00876778
0.000295217
-0.00875314
0.0088039
0.000849636
0.00886106
0.00139656
0.00893866
0.00193154
0.00903601
0.00245076
0.0091525
0.0029511
0.00928776
0.00342983
0.00944173
0.00388478
0.00961416
0.0043316
0.00464985
0.00866419
0.000279762
-0.00864874
0.0087044
0.000809432
0.00876894
0.00133202
0.00885723
0.00184325
0.00896861
0.00233938
0.00910234
0.00281737
0.00925781
0.00327436
0.00943443
0.00370816
0.00963261
0.00413342
0.00444345
0.00857475
0.000263579
-0.00855857
0.00861834
0.000765842
0.00868894
0.00126141
0.00878599
0.0017462
0.00890877
0.0022166
0.0090565
0.00266964
0.00922835
0.00310251
0.00942335
0.00351316
0.00964259
0.00391419
0.0042152
0.00849706
0.000246773
-0.00848026
0.00854343
0.000719475
0.00861897
0.00118587
0.00872311
0.00164206
0.00885511
0.0020846
0.00901412
0.00251063
0.0091992
0.00291743
0.00940918
0.00330318
0.00964541
0.00367795
0.00396752
0.00842944
0.000229436
-0.0084121
0.0084781
0.000670815
0.00855769
0.00110627
0.00866763
0.00153213
0.00880713
0.0019451
0.0089753
0.00234246
0.00917113
0.0027216
0.00939335
0.00308096
0.00964324
0.00342806
0.00370339
0.00837061
0.000211648
-0.00835282
0.00842117
0.000620257
0.0085041
0.00102334
0.00861879
0.00141743
0.00876443
0.00179946
0.00894008
0.00216681
0.00914464
0.00251703
0.00937683
0.00284877
0.00963764
0.00316725
0.00342574
0.00831955
0.000193477
-0.00830138
0.00837169
0.000568116
0.00845739
0.000937632
0.00857601
0.00129881
0.00872671
0.00164877
0.00890847
0.00198505
0.00912015
0.00230535
0.00936044
0.00260849
0.00962994
0.00289775
0.00313717
0.00827542
0.000174979
-0.00825693
0.00832889
0.000514652
0.00841689
0.000849623
0.00853877
0.00117693
0.00869363
0.00149391
0.00888042
0.00179826
0.00909791
0.00208786
0.00934475
0.00236164
0.00962113
0.00262136
0.00283995
0.00823752
0.000156203
-0.00821875
0.0082921
0.000460079
0.00838203
0.000759689
0.00850662
0.00105234
0.00866493
0.0013356
0.00885584
0.00160735
0.00907806
0.00186565
0.00933018
0.00210952
0.00961196
0.00233958
0.00253594
0.00820527
0.000137191
-0.00818626
0.00826078
0.000404574
0.00835232
0.000668146
0.00847916
0.000925499
0.00864032
0.00117444
0.00883462
0.00141305
0.00906066
0.0016396
0.00931701
0.00185318
0.00960298
0.0020536
0.0022267
0.00817817
0.000117977
-0.00815896
0.00823446
0.000348288
0.00832734
0.000575263
0.00845605
0.000796789
0.00861956
0.00101094
0.00881661
0.00121601
0.00904573
0.00141048
0.00930541
0.0015935
0.00959458
0.00176443
0.00191352
0.00815582
9.85937e-05
-0.00813644
0.00821276
0.000291349
0.00830676
0.000481264
0.00843701
0.000666539
0.00860242
0.000845522
0.00880168
0.00101675
0.00903325
0.00117891
0.00929549
0.00133126
0.00958702
0.0014729
0.00159747
0.00813784
7.90682e-05
-0.00811831
0.00819532
0.000233867
0.00829024
0.000386347
0.00842174
0.000535033
0.00858869
0.00067857
0.0087897
0.000815742
0.00902313
0.000945479
0.00928728
0.00106711
0.00958047
0.00117971
0.00127939
0.00812388
5.94239e-05
-0.00810424
0.00818182
0.000175929
0.0082775
0.000290663
0.00841004
0.000402498
0.00857822
0.000510392
0.00878056
0.000613397
0.00901537
0.000710675
0.00928082
0.000801653
0.00957502
0.000885508
0.000960068
0.00811344
3.96899e-05
-0.00809371
0.00817175
0.00011762
0.00826806
0.000194352
0.00840144
0.000269121
0.00857061
0.000341216
0.00877403
0.00040998
0.00900989
0.000474817
0.00927626
0.000535278
0.00957109
0.000590685
0.00063994
0.00810631
1.9877e-05
-0.0080865
0.00816495
5.89772e-05
0.00826182
9.74839e-05
0.00839592
0.000135019
0.00856591
0.000171225
0.00877013
0.000205761
0.00900666
0.00023829
0.00927344
0.000268496
0.0095683
0.000295826
0.000319668
0.00810033
-0.00808045
0.00815931
0.00825679
0.00839181
0.00856304
0.0087688
0.00900709
0.00927558
0.00957141
0.00474079
0.00706531
-0.00660736
-0.00519874
0.00424082
0.00727916
-0.00677919
0.00372523
0.00751567
-0.00700008
0.0031843
0.00777513
-0.00723419
0.00261519
0.00806468
-0.00749556
0.00202038
0.0083749
-0.0077801
0.00140821
0.00862767
-0.0080155
0.000805097
0.00856783
-0.00796471
0.000282075
0.00754871
-0.00702569
0.00419253
-0.00391045
0.00427189
0.0075419
-0.00474848
0.0038122
0.00773885
0.00334749
0.00798038
0.00286391
0.0082587
0.00235455
0.00857404
0.00181954
0.00890992
0.0012668
0.00918041
0.000721966
0.00911266
0.000251243
0.00801943
0.00444377
0.00383981
0.00796162
-0.00425953
0.00341843
0.00816023
0.00299248
0.00840633
0.00255344
0.00869774
0.0020949
0.00903258
0.00161545
0.00938938
0.00112141
0.00967444
0.000636115
0.00959796
0.000219493
0.00843606
0.00466326
0.00338433
0.0083288
-0.00375152
0.00300991
0.00853466
0.00262899
0.00878725
0.00223718
0.00908955
0.00183017
0.00943959
0.00140672
0.00981283
0.000972381
0.0101088
0.000548142
0.0100222
0.000187099
0.0087971
0.00485036
0.00290244
0.00864354
-0.00321718
0.00257965
0.00885745
0.00224939
0.00911751
0.00190941
0.00942953
0.00155716
0.00979184
0.0011921
0.0101779
0.000819501
0.0104814
0.000458184
0.0103835
0.000154148
0.00910114
0.00500451
0.00239841
0.00890491
-0.00265979
0.00212965
0.00912621
0.00185379
0.00939337
0.00156952
0.0097138
0.00127535
0.010086
0.000971428
0.0104818
0.00066288
0.0107899
0.000366422
0.01068
0.00012072
0.00934684
0.00512523
0.00187595
0.00911169
-0.00208272
0.00166316
0.009339
0.00144443
0.0096121
0.00121886
0.00993937
0.00098562
0.0103192
0.000745327
0.0107221
0.000502993
0.0110323
0.000273182
0.0109098
8.695e-05
0.00953307
0.00521218
0.00133859
0.00926214
-0.00148904
0.00118368
0.00949392
0.00102424
0.00977154
0.000859667
0.0101039
0.000689573
0.0104893
0.000514955
0.0108967
0.000340589
0.0112066
0.00017888
0.0110715
5.31242e-05
0.00965882
0.00526531
0.000790356
0.00935461
-0.000882831
0.00069494
0.00958934
0.000596465
0.00987001
0.000494562
0.0102058
0.000389245
0.0105947
0.0002818
0.0110042
0.000176576
0.0113118
8.35931e-05
0.0111645
1.95391e-05
0.00972288
0.00528485
0.000235753
-0.000269206
0.000200976
0.000164611
0.000126466
8.69747e-05
4.7603e-05
1.16884e-05
-1.3999e-05
-1.49523e-05
0.00682264
0.000689747
-0.00751238
0.00610816
0.000714479
0.00536741
0.000740747
0.0045971
0.000770308
0.00379307
0.000804031
0.00295279
0.000840285
0.00208166
0.000871124
0.00121035
0.00087131
0.000435214
0.000775139
0.000435215
0.00679177
0.00137717
-0.00747919
0.00607995
0.0014263
0.00534213
0.00147856
0.00457494
0.0015375
0.00377426
0.00160471
0.0029376
0.00167695
0.00207029
0.00173844
0.00120311
0.00173848
0.000433239
0.00154501
0.000868454
0.00673016
0.00205995
-0.00741294
0.00602364
0.00213282
0.00529165
0.00221055
0.0045307
0.00229845
0.00373674
0.00239867
0.00290742
0.00250627
0.00204821
0.00259765
0.00118973
0.00259696
0.00042785
0.00230689
0.0012963
0.00663667
0.0027344
-0.00731112
0.00593872
0.00283077
0.0052157
0.00293356
0.00446415
0.00305001
0.00368025
0.00318257
0.00286194
0.00332457
0.00201485
0.00344474
0.00116938
0.00344243
0.000419975
0.0030563
0.00171628
0.00651412
0.0033991
-0.00717882
0.00582677
0.00351812
0.00511497
0.00364537
0.00437538
0.0037896
0.00360457
0.00395338
0.00280082
0.00412832
0.00196994
0.00427562
0.00114197
0.00427041
0.000409434
0.00378883
0.00212571
0.00636005
0.00404871
-0.00700966
0.00568675
0.00419142
0.00498885
0.00434326
0.00426379
0.00451467
0.00350901
0.00470817
0.0027234
0.00491393
0.00191296
0.00508606
0.00110717
0.00507619
0.000396087
0.00449992
0.0025218
0.00618528
0.0046863
-0.00682287
0.00552429
0.00485241
0.0048393
0.00502825
0.00412923
0.00522473
0.00339259
0.00544482
0.0026286
0.00567791
0.00184308
0.00587158
0.00106454
0.00585474
0.000379768
0.00518469
0.00290157
0.00597966
0.00530256
-0.00659592
0.0053322
0.00549987
0.00466092
0.00569953
0.00396744
0.00591822
0.00325206
0.00616019
0.00251423
0.00641574
0.00175901
0.0066268
0.00101341
0.00660034
0.000360274
0.00583783
0.00326184
0.00577365
0.00592675
-0.00639785
0.00512013
0.0061534
0.00445226
0.00636739
0.00377335
0.00659713
0.0030829
0.00685065
0.00237732
0.00712132
0.00165917
0.00734495
0.000953156
0.00730635
0.000337425
0.00645356
0.00359927
0.00541148
-0.00609209
0.00478568
0.004153
0.00351593
0.00287102
0.00221224
0.00154168
0.000883318
0.000311187
0.00878545
-3.89094e-05
0.00882132
-3.58622e-05
0.0088522
-3.08832e-05
0.00887723
-2.50351e-05
0.00889593
-1.86923e-05
0.00890795
-1.20278e-05
0.00891315
-5.19292e-06
0.00890993
3.21254e-06
0.00889448
1.54558e-05
0.00886694
2.75332e-05
0.00882636
4.05817e-05
0.00877136
5.4998e-05
0.00870024
7.11275e-05
0.00861089
8.93491e-05
0.00850079
0.000110097
0.00836691
0.000133875
0.00820565
0.000161261
0.00801266
0.000192996
0.00778274
0.000229914
0.000270361
0.008794
-7.53784e-05
0.00882737
-6.92348e-05
0.00885575
-5.92619e-05
0.00887829
-4.757e-05
0.0088945
-3.49015e-05
0.00890408
-2.1609e-05
0.00890699
-8.09788e-06
0.00889987
1.03305e-05
0.00888152
3.38103e-05
0.00885135
5.76962e-05
0.00880835
8.35903e-05
0.00875111
0.00011224
0.00867791
0.000144323
0.00858668
0.000180583
0.00847489
0.000221886
0.00833952
0.000269246
0.00817697
0.000323812
0.00798295
0.000387022
0.00775189
0.000460971
0.000543055
0.00880884
-0.000106686
0.00883686
-9.72601e-05
0.0088599
-8.22991e-05
0.00887723
-6.48988e-05
0.00888849
-4.61606e-05
0.00889346
-2.65793e-05
0.00889246
-7.1018e-06
0.00887927
2.35246e-05
0.00885562
5.74572e-05
0.00882054
9.27795e-05
0.00877291
0.000131213
0.00871135
0.000173803
0.00863412
0.000221552
0.00853914
0.000275562
0.00842391
0.000337122
0.00828539
0.000407768
0.00811997
0.00048923
0.00792351
0.00058348
0.00769011
0.000694368
0.000820228
0.00883336
-0.00013035
0.00885381
-0.000117711
0.00886932
-9.78021e-05
0.00887911
-7.46874e-05
0.0088828
-4.98505e-05
0.00888031
-2.40926e-05
0.00887039
2.82385e-06
0.00884724
4.66739e-05
0.00881502
8.96715e-05
0.00877211
0.00013569
0.00871717
0.000186158
0.0086487
0.000242275
0.00856495
0.000305303
0.00846385
0.000376661
0.00834295
0.000458017
0.00819931
0.000551411
0.00802935
0.000659197
0.00782918
0.000783647
0.00759318
0.000930369
0.00110228
0.00885898
-0.000143497
0.00886852
-0.000127248
0.00887328
-0.000102564
0.0088729
-7.43055e-05
0.00886733
-4.42807e-05
0.0088575
-1.42576e-05
0.00883205
2.82686e-05
0.00879946
7.92604e-05
0.00875759
0.000131546
0.00870527
0.000188011
0.00864127
0.000250158
0.00856415
0.000319391
0.00847222