/*--------------------------------*- C++ -*----------------------------------*\
| =========                 |                                                 |
| \\      /  F ield         | OpenFOAM: The Open Source CFD Toolbox           |
|  \\    /   O peration     | Version:  4.1                                   |
|   \\  /    A nd           | Web:      www.OpenFOAM.org                      |
|    \\/     M anipulation  |                                                 |
\*---------------------------------------------------------------------------*/
FoamFile
{
    version     2.0;
    format      ascii;
    class       volScalarField;
    location    "4.2";
    object      p;
}
// * * * * * * * * * * * * * * * * * * * * * * * * * * * * * * * * * * * * * //

dimensions      [0 2 -2 0 0 0 0];

internalField   nonuniform List<scalar> 
2000
(
-0.15512
-0.144059
-0.13575
-0.126897
-0.115719
-0.101431
-0.0841556
-0.0648052
-0.04381
-0.0247125
-0.173462
-0.160074
-0.149708
-0.137864
-0.122641
-0.103886
-0.0825032
-0.059877
-0.037155
-0.016844
-0.193072
-0.177159
-0.164135
-0.148231
-0.127828
-0.103843
-0.078052
-0.052185
-0.0274342
-0.00512434
-0.213347
-0.194697
-0.178187
-0.156986
-0.130373
-0.100691
-0.070498
-0.0416174
-0.0150683
0.00830947
-0.233278
-0.211692
-0.190639
-0.162878
-0.1293
-0.0938042
-0.0594301
-0.0278092
0.00036154
0.0249738
-0.251446
-0.226762
-0.199946
-0.164522
-0.123649
-0.0825824
-0.0444501
-0.0104736
0.0191117
0.0447905
-0.266071
-0.238162
-0.204389
-0.160568
-0.11255
-0.0664632
-0.0251234
0.010814
0.0416218
0.0682973
-0.275136
-0.243894
-0.202266
-0.149842
-0.0952763
-0.0449571
-0.00106087
0.0363994
0.0682106
0.0957013
-0.276585
-0.24194
-0.192015
-0.131399
-0.071255
-0.0176491
0.0280836
0.0665751
0.0990873
0.127099
-0.26853
-0.230495
-0.172332
-0.104552
-0.0400792
0.0157818
0.0625977
0.101571
0.134337
0.162372
-0.0433848
-0.0464625
-0.0454386
-0.0420289
-0.0364403
-0.0286578
-0.0189631
-0.0078162
0.00415833
0.0164682
-0.0467516
-0.0494831
-0.0484384
-0.0451993
-0.0398771
-0.0324013
-0.0229601
-0.0119713
9.6637e-05
0.0123826
-0.0531403
-0.0551506
-0.0540484
-0.0510673
-0.0461796
-0.0392187
-0.0302407
-0.0195476
-0.00748668
0.00513191
-0.0618844
-0.0628614
-0.0615806
-0.058832
-0.0544302
-0.0480354
-0.0395943
-0.0292651
-0.0172263
-0.00400933
-0.0722758
-0.0719683
-0.0703184
-0.0676568
-0.0635992
-0.0576819
-0.049679
-0.03962
-0.0276135
-0.0135529
-0.0837513
-0.0819623
-0.0797229
-0.0768929
-0.0729264
-0.067224
-0.059376
-0.0493022
-0.0372372
-0.0221808
-0.0960013
-0.0926007
-0.0895383
-0.0862492
-0.0820313
-0.0761276
-0.0679834
-0.0574478
-0.0450392
-0.0289767
-0.109026
-0.103899
-0.0998157
-0.0957653
-0.090853
-0.0841757
-0.0751116
-0.0635784
-0.0503449
-0.0334277
-0.123036
-0.116072
-0.110794
-0.105638
-0.0994526
-0.0912192
-0.0803719
-0.0671302
-0.0523528
-0.0351042
-0.138327
-0.129393
-0.122732
-0.116032
-0.107817
-0.0970569
-0.0833939
-0.0674142
-0.0498466
-0.0328094
0.0276194
0.0388972
0.0496877
0.0594724
0.067972
0.0749971
0.0804004
0.0840836
0.0860016
0.0861567
0.0845899
0.0813773
0.0766172
0.0704199
0.062896
0.0541643
0.0442806
0.0334749
0.0212577
0.0093812
0.0229449
0.0344847
0.0457193
0.0558515
0.0646488
0.0719612
0.0776413
0.0815833
0.0837402
0.0841157
0.0827526
0.0797287
0.0751449
0.0691147
0.0617515
0.0531795
0.043455
0.0328232
0.020789
0.00912443
0.0145032
0.0263924
0.0384287
0.0491972
0.0585291
0.066359
0.0725428
0.0769592
0.0795551
0.0803363
0.0793488
0.0766734
0.0724158
0.0666956
0.0596317
0.0513565
0.0419331
0.0316129
0.019952
0.00856155
0.00382409
0.0159404
0.0289812
0.0405738
0.0505695
0.0590403
0.0658595
0.0708803
0.074038
0.0753406
0.0748389
0.0726172
0.0687873
0.0634764
0.0568108
0.0489319
0.0399142
0.0300083
0.0188544
0.0078242
-0.00729797
0.00477382
0.018776
0.0312195
0.041877
0.0509893
0.0584646
0.0641222
0.0678778
0.0697402
0.0697664
0.0680431
0.0646886
0.0598372
0.0536233
0.0461955
0.0376445
0.0282087
0.0176416
0.00701966
-0.0171821
-0.00537319
0.00927151
0.0223672
0.0335379
0.0431708
0.0512109
0.057439
0.061745
0.064133
0.0646619
0.0634209
0.0605345
0.0561434
0.0503891
0.0434229
0.0353558
0.0263999
0.0164428
0.00623754
-0.024572
-0.0129995
0.00180404
0.0151438
0.0265454
0.0364663
0.0448654
0.0514937
0.0562184
0.0590325
0.0599879
0.0591668
0.0566946
0.0527179
0.0473858
0.0408479
0.0332375
0.0247288
0.0153518
0.00554021
-0.0288284
-0.0172631
-0.00277936
0.0103014
0.0215653
0.0314402
0.0398784
0.0466399
0.0515832
0.0546832
0.0559779
0.055522
0.0534174
0.0498051
0.0448416
0.0386726
0.0314573
0.0233254
0.0144448
0.00496509
-0.0302839
-0.0187885
-0.00507693
0.00737143
0.0182699
0.0278535
0.0360782
0.0427739
0.0477936
0.0510727
0.0526233
0.0524912
0.0507427
0.0474861
0.0428711
0.0370337
0.0301582
0.0223294
0.0138301
0.00456703
-0.0278372
-0.0170071
-0.00421656
0.00783314
0.0183024
0.0273088
0.0350035
0.0413029
0.0460439
0.0491336
0.0505796
0.0504535
0.0488192
0.0457467
0.0413621
0.0357745
0.0291797
0.0216129
0.013439
0.00434553
-0.0096725
-0.00612306
0.0048503
0.0161175
0.0252919
0.0327272
0.0389546
0.0439998
0.0476879
0.0499186
0.0506937
0.0500489
0.0480402
0.0447317
0.0402434
0.0346553
0.0281731
0.0207731
0.0128956
0.00406327
0.00916993
0.00886045
0.0175832
0.0272083
0.0344851
0.039856
0.0441713
0.0475913
0.0499279
0.0510384
0.0509018
0.0495511
0.0470412
0.0434216
0.0387925
0.0332038
0.0268515
0.019666
0.0121326
0.00366822
0.0270878
0.0244184
0.030486
0.0378418
0.0431279
0.0466486
0.0492859
0.0512553
0.0523711
0.052468
0.0515107
0.0495239
0.046553
0.0426313
0.0378441
0.0322177
0.0259424
0.0189121
0.0116433
0.00345235
0.044375
0.0397474
0.0431807
0.0481748
0.0515505
0.0534206
0.0545585
0.0551912
0.0551595
0.0542989
0.0525616
0.0499594
0.0465274
0.0422856
0.0373074
0.0315992
0.025344
0.0184046
0.0113103
0.00330225
0.0605214
0.0543139
0.0553634
0.0581179
0.059692
0.0600528
0.059832
0.0592396
0.0581437
0.0563884
0.0539164
0.0507261
0.0468423
0.0422737
0.037083
0.0312595
0.024978
0.0180755
0.0110859
0.00320045
0.0752217
0.0678584
0.0668367
0.0675474
0.0674602
0.0664484
0.065005
0.0633053
0.0612363
0.0586543
0.0554966
0.0517499
0.0474293
0.0425332
0.0371153
0.0311503
0.0248049
0.0178954
0.0109549
0.00314132
0.0884866
0.0802764
0.0774887
0.0763834
0.0747988
0.0725528
0.0700152
0.0673201
0.0643675
0.0610266
0.0572326
0.0529627
0.0482233
0.0430038
0.0373499
0.0312244
0.024786
0.0178346
0.0108988
0.00311436
0.100379
0.0915311
0.0872619
0.0845779
0.0816677
0.0783226
0.0748096
0.0712236
0.0674734
0.0634404
0.0590598
0.0543014
0.0491642
0.0436298
0.037737
0.0314388
0.024886
0.0178662
0.0109003
0.00311141
0.110967
0.101642
0.0961444
0.092107
0.0880377
0.0837219
0.0793441
0.0749647
0.0704987
0.0658389
0.0609213
0.0557106
0.0501992
0.0443624
0.038233
0.0317557
0.0250745
0.0179669
0.0109453
0.00312619
0.120347
0.110664
0.10415
0.0989613
0.0938882
0.0887221
0.0835824
0.0785004
0.0733964
0.0681728
0.0627677
0.0571416
0.051282
0.0451587
0.0387996
0.0321425
0.0253249
0.0181169
0.0110216
0.00315355
0.128611
0.118657
0.111302
0.105141
0.0992055
0.0933009
0.087495
0.0817952
0.0761266
0.0704003
0.0645564
0.0585527
0.0523727
0.0459819
0.0394037
0.0325706
0.0256143
0.0182991
0.011119
0.00318923
0.135843
0.125679
0.117631
0.110651
0.103982
0.0974424
0.0910587
0.0848204
0.0786566
0.072486
0.0662514
0.0599082
0.0534371
0.0468001
0.040017
0.0330157
0.025923
0.0184989
0.0112284
0.0032297
0.142111
0.131785
0.123167
0.115505
0.108217
0.101135
0.0942558
0.0875528
0.0809592
0.0744007
0.0678222
0.061178
0.0544463
0.0475865
0.0406152
0.0334572
0.0262343
0.0187039
0.0113423
0.00327206
0.147475
0.137025
0.127941
0.119714
0.111909
0.104372
0.0970729
0.0899741
0.0830128
0.0761203
0.0692438
0.062337
0.0553761
0.0483184
0.0411783
0.0338775
0.0265343
0.0189037
0.0114544
0.00331387
0.151987
0.141443
0.131981
0.123293
0.115064
0.107149
0.0995003
0.0920704
0.0847999
0.0776254
0.0704959
0.0633645
0.0562064
0.0489772
0.0416894
0.0342624
0.0268113
0.0190897
0.0115594
0.00335315
0.155691
0.145074
0.135313
0.126256
0.117684
0.109464
0.101531
0.093831
0.0863072
0.0789006
0.0715619
0.0642441
0.0569212
0.0495478
0.0421347
0.0345999
0.0270557
0.0192549
0.0116531
0.00338825
0.158622
0.147949
0.137956
0.128613
0.119774
0.111317
0.103161
0.0952479
0.0875243
0.0799339
0.072429
0.0649624
0.0575075
0.0500179
0.0425033
0.0348807
0.0272599
0.0193935
0.011732
0.00341787
0.160805
0.15009
0.139925
0.130372
0.121338
0.112706
0.104385
0.0963152
0.0884434
0.0807164
0.0730875
0.0655096
0.0579554
0.0503783
0.0427868
0.0350974
0.027418
0.0195014
0.0117934
0.00344121
0.162271
0.151519
0.141236
0.131542
0.122379
0.113631
0.105203
0.097029
0.089059
0.0812414
0.0735303
0.0658783
0.058258
0.0506223
0.0429792
0.0352449
0.0275255
0.0195755
0.0118348
0.00345999
0.163047
0.152261
0.141906
0.132134
0.122903
0.114096
0.105613
0.0973872
0.089368
0.0815051
0.0737527
0.0660638
0.0584102
0.0507455
0.0430757
0.0353204
0.0275781
0.0196165
0.0118492
0.00348351
0.185524
0.15108
0.120159
0.0929281
0.0693831
0.0494244
0.032753
0.0192085
0.00854153
-0.00312741
0.205167
0.17223
0.142632
0.116358
0.09348
0.0737515
0.0573654
0.0430692
0.032138
0.0184638
0.222433
0.19112
0.162896
0.137573
0.115333
0.0956214
0.0790635
0.0636491
0.0518056
0.0379437
0.23754
0.207602
0.180469
0.15586
0.134071
0.114326
0.0975688
0.0817156
0.0694649
0.0561649
0.250732
0.221937
0.195698
0.171698
0.15032
0.130741
0.114034
0.0983401
0.0858357
0.0728867
0.262281
0.23448
0.209031
0.185628
0.164678
0.145428
0.128841
0.113364
0.100512
0.0877228
0.272418
0.245502
0.220765
0.197934
0.177389
0.158482
0.141963
0.126633
0.11352
0.10088
0.281328
0.2552
0.231096
0.208791
0.188601
0.170006
0.153552
0.138368
0.12514
0.112615
0.289154
0.263726
0.240184
0.218355
0.198485
0.180181
0.163825
0.148787
0.135509
0.123044
0.296015
0.27121
0.248168
0.226769
0.207196
0.189161
0.172918
0.158003
0.144697
0.132267
0.302009
0.277758
0.255164
0.23415
0.214851
0.197056
0.180928
0.166113
0.152796
0.140391
0.307223
0.283459
0.261265
0.240594
0.221546
0.203962
0.187944
0.173215
0.159893
0.147503
0.311722
0.288392
0.266548
0.24618
0.227359
0.209961
0.194045
0.179387
0.166062
0.153674
0.315557
0.292609
0.271076
0.250976
0.232358
0.215121
0.199296
0.184695
0.171361
0.158962
0.318765
0.296151
0.274897
0.255034
0.236595
0.219497
0.20375
0.189192
0.175843
0.163419
0.321379
0.299058
0.278054
0.258399
0.240116
0.223135
0.207452
0.192923
0.17955
0.167088
0.323434
0.301367
0.280581
0.261104
0.242955
0.226071
0.210436
0.195922
0.182517
0.170003
0.324958
0.303106
0.282505
0.263178
0.24514
0.228332
0.212731
0.198218
0.18477
0.172189
0.325963
0.304297
0.283854
0.264656
0.24671
0.229961
0.21438
0.199854
0.186352
0.173687
0.326414
0.304896
0.28458
0.265486
0.247615
0.230913
0.215348
0.20081
0.187261
0.174518
0.661899
0.65998
0.651146
0.637017
0.61818
0.59347
0.560185
0.515413
0.460968
0.429223
0.614487
0.607403
0.591692
0.571995
0.54806
0.517428
0.47695
0.423939
0.360577
0.322962
0.564355
0.55195
0.531064
0.506707
0.477762
0.441154
0.3937
0.333144
0.261743
0.21946
0.509344
0.493218
0.469123
0.441218
0.407821
0.365706
0.311905
0.244917
0.16675
0.121545
0.453153
0.433989
0.407396
0.376481
0.339189
0.292261
0.232925
0.160641
0.0782084
0.0317528
0.398055
0.376132
0.347372
0.313816
0.273154
0.222196
0.158354
0.0812099
-0.000441904
-0.0482841
0.344908
0.320576
0.29005
0.254344
0.21093
0.156813
0.0896744
0.0105716
-0.0693364
-0.117255
0.294371
0.268025
0.236196
0.19895
0.153508
0.0972424
0.0285296
-0.0505783
-0.127497
-0.174074
0.246904
0.21904
0.186601
0.148221
0.101502
0.0443043
-0.024474
-0.101721
-0.173888
-0.218127
0.201913
0.174245
0.141601
0.102666
0.0555101
-0.00154825
-0.068922
-0.142354
-0.208118
-0.249414
0.985762
0.995025
1.00639
1.01993
1.0356
1.05318
1.07203
1.09039
1.10674
1.12806
0.980259
0.988726
0.999497
1.01239
1.02725
1.04384
1.06147
1.07835
1.09293
1.11298
0.969196
0.976113
0.985715
0.997349
1.01062
1.02522
1.04043
1.05434
1.06557
1.08292
0.952494
0.957191
0.965104
0.974887
0.985822
0.997532
1.00917
1.01873
1.0251
1.03847
0.930072
0.931992
0.937769
0.945169
0.953089
0.961061
0.968105
0.972052
0.972136
0.980435
0.901815
0.900515
0.903812
0.908386
0.912711
0.916218
0.917763
0.915006
0.907572
0.909917
0.867794
0.862977
0.863598
0.864989
0.865205
0.863615
0.858897
0.848531
0.83256
0.82831
0.827488
0.819117
0.817217
0.815328
0.811117
0.803987
0.792452
0.773811
0.748538
0.73733
0.781598
0.769893
0.765743
0.760257
0.751214
0.738222
0.719532
0.692231
0.657203
0.63897
0.726233
0.715597
0.710313
0.700904
0.686742
0.667703
0.641638
0.605503
0.560605
0.535456
0.99766
0.993069
0.988811
0.984776
0.980871
0.977121
0.973594
0.970351
0.967443
0.964925
0.96286
0.961343
0.960446
0.960235
0.960785
0.962183
0.964533
0.967943
0.972535
0.978393
0.997605
0.992927
0.988565
0.984407
0.980373
0.976494
0.972834
0.969448
0.966386
0.963699
0.961458
0.959745
0.958625
0.958165
0.958437
0.959517
0.961497
0.96447
0.968551
0.973771
0.997516
0.992643
0.98805
0.983648
0.979367
0.975233
0.971305
0.967632
0.96426
0.961235
0.958644
0.956541
0.95498
0.954019
0.953726
0.954169
0.955407
0.9575
0.960541
0.964456
0.997377
0.992201
0.987262
0.982498
0.97785
0.97334
0.969017
0.964925
0.961099
0.957559
0.954433
0.951742
0.949515
0.947796
0.946639
0.946094
0.946204
0.946961
0.948418
0.95032
0.997184
0.991598
0.986198
0.980953
0.975816
0.970797
0.965932
0.961253
0.956797
0.952654
0.948843
0.945365
0.942244
0.939511
0.93719
0.935291
0.933829
0.932743
0.932046
0.931193
0.996935
0.990828
0.984854
0.979013
0.973268
0.967626
0.962113
0.956758
0.951487
0.946561
0.941887
0.937426
0.933191
0.92919
0.925415
0.921819
0.918367
0.91488
0.911398
0.906948
0.996627
0.989885
0.98323
0.976685
0.970221
0.96383
0.957505
0.951164
0.945196
0.93937
0.933623
0.927965
0.922395
0.916875
0.911351
0.905705
0.89986
0.893469
0.886631
0.877688
0.996258
0.988761
0.981295
0.973913
0.966594
0.959268
0.951952
0.944938
0.937985
0.93101
0.924014
0.916983
0.90987
0.90258
0.89501
0.886938
0.878237
0.868283
0.857329
0.842763
0.995869
0.987584
0.979281
0.970912
0.962559
0.954335
0.94626
0.938162
0.929991
0.921728
0.913342
0.904768
0.895918
0.886639
0.876782
0.866003
0.854173
0.840256
0.824843
0.803533
0.99529
0.985857
0.976425
0.96712
0.957871
0.94861
0.939306
0.929925
0.920418
0.910722
0.90076
0.890418
0.879551
0.867921
0.855297
0.841124
0.825234
0.80593
0.784622
0.754149
0.994956
0.984859
0.974743
0.964602
0.9544
0.944106
0.933692
0.92311
0.912287
0.901133
0.889536
0.877345
0.864375
0.850332
0.834921
0.817515
0.79772
0.773764
0.745197
0.705372
0.994646
0.983927
0.973154
0.962303
0.951363
0.940301
0.92907
0.917606
0.905826
0.89363
0.880896
0.867462
0.853134
0.837617
0.820618
0.801558
0.780062
0.754906
0.726005
0.691658
0.994346
0.983021
0.971603
0.960078
0.94844
0.93665
0.924647
0.91236
0.899703
0.886573
0.872846
0.858361
0.84293
0.826286
0.808165
0.788109
0.765827
0.740609
0.712318
0.680091
0.99405
0.982124
0.970068
0.957876
0.945546
0.933037
0.92028
0.907199
0.893707
0.879701
0.865058
0.849625
0.833228
0.815632
0.796612
0.775818
0.75302
0.727742
0.699806
0.668541
0.993759
0.981243
0.968563
0.955718
0.942718
0.929519
0.916047
0.902222
0.887959
0.873157
0.857698
0.841439
0.824226
0.805856
0.786141
0.764808
0.741675
0.716387
0.688845
0.658513
0.993475
0.980388
0.967106
0.953635
0.939996
0.926145
0.912005
0.897495
0.882531
0.867017
0.850843
0.833881
0.815992
0.797008
0.776772
0.755068
0.731761
0.706583
0.679511
0.650079
0.993201
0.979567
0.965712
0.951648
0.937406
0.922945
0.908187
0.893051
0.877455
0.861309
0.844514
0.826955
0.808512
0.789044
0.768423
0.746479
0.723116
0.698129
0.671531
0.642909
0.992942
0.978789
0.964394
0.949772
0.934967
0.919942
0.904618
0.888913
0.872751
0.856049
0.838718
0.820657
0.801762
0.781915
0.761014
0.738925
0.715581
0.690826
0.664683
0.636802
0.992698
0.978058
0.96316
0.948021
0.932697
0.917154
0.901314
0.885098
0.868434
0.851247
0.833456
0.814974
0.795711
0.775572
0.754472
0.732309
0.709034
0.684529
0.658824
0.631626
0.99247
0.97738
0.962017
0.946404
0.930605
0.914592
0.898288
0.881617
0.86451
0.846902
0.82872
0.809887
0.790329
0.769965
0.748729
0.726541
0.703368
0.679122
0.653832
0.627264
0.992262
0.976757
0.960972
0.944929
0.928701
0.912265
0.895547
0.878473
0.860981
0.84301
0.824496
0.805374
0.785579
0.765046
0.743721
0.721544
0.698493
0.674502
0.649602
0.623607
0.992072
0.976193
0.960028
0.943599
0.926988
0.910177
0.893094
0.875668
0.857842
0.839561
0.820769
0.801409
0.781426
0.760767
0.739389
0.717247
0.694326
0.670582
0.646041
0.620562
0.991903
0.97569
0.959187
0.942418
0.92547
0.908329
0.890928
0.873199
0.855087
0.836543
0.817519
0.797965
0.777834
0.757083
0.735678
0.713586
0.690796
0.667283
0.643066
0.618047
0.991755
0.975248
0.958452
0.941387
0.924147
0.906722
0.889048
0.871059
0.852706
0.833943
0.814728
0.795018
0.774772
0.753955
0.732541
0.710505
0.687841
0.664538
0.64061
0.615992
0.991627
0.97487
0.957822
0.940507
0.923018
0.905353
0.887449
0.869244
0.850689
0.831747
0.812377
0.792542
0.772208
0.751346
0.729934
0.707956
0.685408
0.66229
0.638612
0.614339
0.991521
0.974554
0.957299
0.939776
0.922083
0.90422
0.886127
0.867744
0.849028
0.82994
0.810448
0.790516
0.770115
0.749223
0.727819
0.705896
0.683451
0.660491
0.637025
0.613039
0.991436
0.974301
0.956882
0.939194
0.921339
0.903318
0.885076
0.866555
0.847711
0.828512
0.808924
0.788919
0.768471
0.747558
0.726166
0.704291
0.681932
0.659102
0.635807
0.612052
0.991373
0.974115
0.956573
0.938762
0.920783
0.902646
0.884293
0.865669
0.846732
0.82745
0.807794
0.787737
0.767254
0.746329
0.72495
0.703113
0.680821
0.658092
0.634928
0.611347
0.991333
0.973999
0.956379
0.938481
0.920417
0.902199
0.883773
0.865081
0.846082
0.826747
0.807046
0.786955
0.766452
0.74552
0.724149
0.702341
0.680095
0.657437
0.634365
0.610907
0.991294
0.973937
0.956291
0.938349
0.920237
0.901977
0.883514
0.864789
0.84576
0.826397
0.806675
0.786567
0.766053
0.745118
0.723753
0.701958
0.679737
0.657115
0.634096
0.610721
0.659103
0.610791
0.563113
0.512156
0.459711
0.408277
0.358541
0.310774
0.265363
0.22354
0.653457
0.603502
0.555563
0.508237
0.459793
0.412059
0.365981
0.32174
0.279894
0.241216
0.644088
0.596265
0.549711
0.505799
0.461213
0.416732
0.373664
0.332373
0.293234
0.256628
0.634676
0.590021
0.545432
0.504067
0.462666
0.421047
0.38054
0.341689
0.304753
0.270052
0.626321
0.584578
0.54221
0.502954
0.464167
0.425062
0.386762
0.349959
0.314905
0.281821
0.61908
0.579856
0.539755
0.502358
0.465697
0.428751
0.392371
0.357311
0.323852
0.292153
0.612869
0.575825
0.537873
0.502143
0.467225
0.432108
0.397398
0.363835
0.331736
0.301234
0.607606
0.572451
0.536435
0.502192
0.468724
0.435143
0.401879
0.369611
0.338683
0.309221
0.60319
0.569662
0.535342
0.502409
0.470158
0.437868
0.405852
0.374709
0.344792
0.316239
0.599511
0.567379
0.534516
0.50272
0.471501
0.440297
0.409351
0.379186
0.350149
0.32239
0.596464
0.565524
0.533895
0.503073
0.472726
0.442437
0.412408
0.383092
0.354823
0.327758
0.593958
0.564023
0.533428
0.503426
0.473816
0.444298
0.41505
0.386468
0.358867
0.332422
0.59191
0.562811
0.533069
0.503749
0.474754
0.445883
0.4173
0.389348
0.36232
0.336385
0.59025
0.561832
0.532781
0.504017
0.475531
0.4472
0.419177
0.391767
0.365238
0.339773
0.58892
0.561037
0.532531
0.50421
0.476136
0.44825
0.420699
0.393754
0.367665
0.342615
0.587872
0.560389
0.532295
0.504312
0.476563
0.449037
0.421876
0.395323
0.36961
0.344912
0.587066
0.559856
0.532052
0.504313
0.476806
0.449563
0.422717
0.396488
0.371092
0.346694
0.586468
0.55941
0.531785
0.504203
0.476865
0.449833
0.423234
0.397267
0.372131
0.347983
0.586058
0.559022
0.531452
0.503933
0.476695
0.449812
0.423402
0.397646
0.372729
0.3488
0.585879
0.558774
0.531127
0.503545
0.476302
0.449483
0.423188
0.397578
0.372823
0.349063
)
;

boundaryField
{
    bottom
    {
        type            symmetryPlane;
    }
    right
    {
        type            fixedValue;
        value           uniform 0;
    }
    top
    {
        type            symmetryPlane;
    }
    left
    {
        type            fixedValue;
        value           uniform 1;
    }
    cylinder
    {
        type            zeroGradient;
    }
    defaultFaces
    {
        type            empty;
    }
}


// ************************************************************************* //
