/*--------------------------------*- C++ -*----------------------------------*\
| =========                 |                                                 |
| \\      /  F ield         | OpenFOAM: The Open Source CFD Toolbox           |
|  \\    /   O peration     | Version:  4.1                                   |
|   \\  /    A nd           | Web:      www.OpenFOAM.org                      |
|    \\/     M anipulation  |                                                 |
\*---------------------------------------------------------------------------*/
FoamFile
{
    version     2.0;
    format      ascii;
    class       volScalarField;
    location    "6.7";
    object      p;
}
// * * * * * * * * * * * * * * * * * * * * * * * * * * * * * * * * * * * * * //

dimensions      [0 2 -2 0 0 0 0];

internalField   nonuniform List<scalar> 
2000
(
-0.458774
-0.446863
-0.435964
-0.425836
-0.416236
-0.406042
-0.393838
-0.379673
-0.361037
-0.343322
-0.481852
-0.46623
-0.452735
-0.439695
-0.425905
-0.410179
-0.391926
-0.371388
-0.348348
-0.326226
-0.509758
-0.489715
-0.473023
-0.455804
-0.435903
-0.412975
-0.387668
-0.361139
-0.333873
-0.30771
-0.542479
-0.517183
-0.496375
-0.472954
-0.444696
-0.413159
-0.380505
-0.348359
-0.317319
-0.289332
-0.579032
-0.547796
-0.521398
-0.489071
-0.450353
-0.409436
-0.369558
-0.332249
-0.298061
-0.267629
-0.617477
-0.579886
-0.54541
-0.501322
-0.450776
-0.400439
-0.353833
-0.31197
-0.274827
-0.242168
-0.654438
-0.610685
-0.564768
-0.506618
-0.443951
-0.384847
-0.332281
-0.28642
-0.246605
-0.21165
-0.685501
-0.636043
-0.575644
-0.502241
-0.42814
-0.361404
-0.303824
-0.254623
-0.212397
-0.175368
-0.706067
-0.65098
-0.574452
-0.486039
-0.401909
-0.328944
-0.267434
-0.215658
-0.171523
-0.132938
-0.71207
-0.65089
-0.558021
-0.456337
-0.364135
-0.286485
-0.222188
-0.168711
-0.123413
-0.0841789
-0.352557
-0.358913
-0.36175
-0.36399
-0.365938
-0.367181
-0.367369
-0.366244
-0.36375
-0.36016
-0.356435
-0.36221
-0.36486
-0.367105
-0.369139
-0.370519
-0.370862
-0.369832
-0.367255
-0.363719
-0.363522
-0.36814
-0.370407
-0.372538
-0.374598
-0.376097
-0.376598
-0.375681
-0.372934
-0.369012
-0.372628
-0.375693
-0.37727
-0.379
-0.380838
-0.382264
-0.382762
-0.381928
-0.379157
-0.373107
-0.382589
-0.383895
-0.384398
-0.385295
-0.386504
-0.387552
-0.387783
-0.386713
-0.383486
-0.376119
-0.392649
-0.392135
-0.391177
-0.390774
-0.390917
-0.391186
-0.390892
-0.389355
-0.386349
-0.37598
-0.402693
-0.400316
-0.39764
-0.395526
-0.394231
-0.393416
-0.392364
-0.38993
-0.387633
-0.374132
-0.413255
-0.408969
-0.404371
-0.400358
-0.39741
-0.395311
-0.393207
-0.389439
-0.387072
-0.372197
-0.425356
-0.418968
-0.412366
-0.406417
-0.401741
-0.397934
-0.393932
-0.388361
-0.383475
-0.369191
-0.440181
-0.431311
-0.422643
-0.414745
-0.407987
-0.401648
-0.394253
-0.385386
-0.374605
-0.361184
-0.355699
-0.349195
-0.3408
-0.330408
-0.318085
-0.303753
-0.287404
-0.269093
-0.248937
-0.227129
-0.203918
-0.179621
-0.154606
-0.129278
-0.104053
-0.0794004
-0.0558606
-0.0341287
-0.0140722
0.00522259
-0.360529
-0.354255
-0.346042
-0.335941
-0.323884
-0.309754
-0.293552
-0.275355
-0.25528
-0.233446
-0.21014
-0.185709
-0.160529
-0.13497
-0.109493
-0.0845904
-0.0607305
-0.0384673
-0.0179537
0.00198457
-0.368351
-0.362353
-0.354507
-0.34502
-0.333412
-0.319641
-0.303723
-0.285767
-0.265668
-0.243785
-0.220377
-0.195745
-0.170272
-0.144374
-0.118484
-0.0930596
-0.0685533
-0.0453147
-0.0239117
-0.00243875
-0.376359
-0.37085
-0.363346
-0.354377
-0.343398
-0.330167
-0.314659
-0.296936
-0.277107
-0.255306
-0.231809
-0.206955
-0.181135
-0.154776
-0.12832
-0.102196
-0.0768372
-0.0523644
-0.029667
-0.00626576
-0.381412
-0.378178
-0.370751
-0.362007
-0.351624
-0.339007
-0.323978
-0.306584
-0.286939
-0.265229
-0.241706
-0.216699
-0.190593
-0.163824
-0.136824
-0.109997
-0.0837628
-0.058116
-0.0339638
-0.00903387
-0.383469
-0.382216
-0.375095
-0.366418
-0.356476
-0.344412
-0.329832
-0.312767
-0.293357
-0.27179
-0.24831
-0.223252
-0.196992
-0.169972
-0.142594
-0.115273
-0.0883593
-0.0619222
-0.0365682
-0.0108861
-0.382447
-0.38232
-0.375298
-0.366645
-0.357026
-0.345339
-0.331086
-0.314302
-0.295131
-0.273767
-0.25045
-0.22553
-0.199354
-0.172381
-0.144949
-0.117528
-0.0903248
-0.0636581
-0.0376501
-0.0120248
-0.379249
-0.378172
-0.37068
-0.361992
-0.35243
-0.340895
-0.326924
-0.310488
-0.291676
-0.270695
-0.247793
-0.223334
-0.197619
-0.171122
-0.14409
-0.117072
-0.090079
-0.0637365
-0.0376452
-0.0126204
-0.373431
-0.370151
-0.362066
-0.352962
-0.342978
-0.331448
-0.317875
-0.302009
-0.283836
-0.26358
-0.241479
-0.217896
-0.19307
-0.167484
-0.141286
-0.1151
-0.0887538
-0.063128
-0.0373666
-0.0130322
-0.363085
-0.358832
-0.35032
-0.339854
-0.328761
-0.316992
-0.303781
-0.288583
-0.271273
-0.25205
-0.231106
-0.20878
-0.185239
-0.160963
-0.136015
-0.11108
-0.0858595
-0.0614046
-0.0365728
-0.0132504
-0.335426
-0.339714
-0.332488
-0.320821
-0.308847
-0.296957
-0.284078
-0.269427
-0.252823
-0.234503
-0.214694
-0.193727
-0.17173
-0.149131
-0.125946
-0.102824
-0.0794139
-0.0567875
-0.0337128
-0.0122924
-0.305798
-0.315393
-0.30923
-0.296374
-0.283506
-0.27171
-0.259598
-0.246
-0.230595
-0.213643
-0.195407
-0.17621
-0.156133
-0.13555
-0.114425
-0.0933717
-0.072007
-0.0514006
-0.0303263
-0.0110173
-0.275701
-0.287861
-0.2831
-0.270708
-0.258202
-0.247144
-0.236135
-0.223834
-0.209827
-0.194375
-0.177762
-0.160307
-0.142066
-0.123374
-0.104162
-0.0850179
-0.0655486
-0.0468184
-0.027632
-0.0101873
-0.246216
-0.259358
-0.256373
-0.245548
-0.234168
-0.224094
-0.214174
-0.203112
-0.190456
-0.176442
-0.161354
-0.145511
-0.128954
-0.111997
-0.0945484
-0.077175
-0.059477
-0.0424979
-0.0250564
-0.00928853
-0.217781
-0.231308
-0.230192
-0.221351
-0.211436
-0.20246
-0.193599
-0.183719
-0.17237
-0.159749
-0.146118
-0.131792
-0.116806
-0.101463
-0.0856544
-0.0699271
-0.0538763
-0.0385184
-0.0226941
-0.00848076
-0.191011
-0.204627
-0.205182
-0.198345
-0.19001
-0.18221
-0.174414
-0.165679
-0.155587
-0.144299
-0.132048
-0.11914
-0.105612
-0.091758
-0.0774609
-0.0632494
-0.0487156
-0.0348502
-0.0205171
-0.0077322
-0.166346
-0.179735
-0.18165
-0.176677
-0.169924
-0.163337
-0.156602
-0.148967
-0.140065
-0.130032
-0.119073
-0.107485
-0.0953039
-0.0828204
-0.0699126
-0.0570948
-0.0439567
-0.031466
-0.0185066
-0.00704094
-0.143811
-0.156743
-0.159734
-0.15644
-0.151205
-0.145816
-0.140119
-0.133529
-0.12574
-0.116879
-0.107124
-0.0967603
-0.0858229
-0.0746014
-0.0629702
-0.0514328
-0.0395768
-0.0283505
-0.0166546
-0.00640624
-0.123291
-0.135666
-0.139511
-0.137702
-0.133878
-0.129634
-0.124929
-0.119321
-0.112568
-0.104794
-0.0961542
-0.0869221
-0.0771299
-0.0670671
-0.0566058
-0.0462412
-0.0355593
-0.0254921
-0.0149542
-0.00582534
-0.104724
-0.116505
-0.121022
-0.120509
-0.117966
-0.114789
-0.111012
-0.106317
-0.100522
-0.0937478
-0.0861337
-0.0779405
-0.0691972
-0.060193
-0.0507988
-0.0415036
-0.0318918
-0.0228823
-0.0134007
-0.00529616
-0.0880689
-0.0992406
-0.104279
-0.104883
-0.103485
-0.101282
-0.0983602
-0.0945046
-0.089584
-0.0837226
-0.0770432
-0.0697959
-0.062006
-0.0539626
-0.0455356
-0.0372092
-0.0285665
-0.0205157
-0.0119913
-0.00481727
-0.073271
-0.0838354
-0.0892732
-0.090833
-0.0904465
-0.0891185
-0.0869719
-0.083876
-0.0797455
-0.0747074
-0.068871
-0.0624762
-0.0555447
-0.0483656
-0.0408074
-0.0333511
-0.0255783
-0.0183888
-0.0107241
-0.00438763
-0.0602672
-0.0702493
-0.0759892
-0.0783625
-0.0788579
-0.0783043
-0.0768476
-0.0744288
-0.0710018
-0.0666967
-0.0616106
-0.0559746
-0.0498067
-0.0433955
-0.0366089
-0.029925
-0.0229243
-0.0164996
-0.00959811
-0.00400653
-0.0490021
-0.0584455
-0.0644116
-0.0674687
-0.0687226
-0.0688423
-0.0679885
-0.0661621
-0.0633509
-0.0596877
-0.0552588
-0.0502874
-0.0447879
-0.0390488
-0.032937
-0.0269285
-0.0206027
-0.014847
-0.00861291
-0.00367351
-0.0394282
-0.0483895
-0.0545224
-0.0581462
-0.0600403
-0.0607336
-0.0603952
-0.0590759
-0.0567924
-0.0536793
-0.0498142
-0.0454128
-0.0404866
-0.0353236
-0.0297902
-0.0243604
-0.0186129
-0.0134304
-0.00776826
-0.00338831
-0.0315031
-0.0400495
-0.0463039
-0.0503871
-0.0528087
-0.0539773
-0.0540674
-0.0531701
-0.0513259
-0.0486714
-0.0452762
-0.0413501
-0.036902
-0.0322192
-0.0271677
-0.0222202
-0.0169545
-0.0122497
-0.00706417
-0.00315078
-0.0251922
-0.0334001
-0.0397424
-0.0441862
-0.0470259
-0.0485731
-0.0490048
-0.0484445
-0.0469516
-0.044664
-0.041645
-0.0380994
-0.0340338
-0.0297352
-0.0250695
-0.0205077
-0.0156276
-0.0113049
-0.00650076
-0.00296087
-0.0204667
-0.0284229
-0.0348304
-0.0395428
-0.042694
-0.0445231
-0.0452095
-0.0449009
-0.0436709
-0.0416582
-0.0389214
-0.0356611
-0.0318825
-0.027872
-0.0234957
-0.0192231
-0.0146325
-0.0105964
-0.00607846
-0.00281829
-0.0172789
-0.0250828
-0.0315462
-0.0364449
-0.0398068
-0.0418242
-0.0426798
-0.0425384
-0.0414836
-0.0396542
-0.0371056
-0.0340353
-0.0304482
-0.0266295
-0.0224467
-0.0183661
-0.0139698
-0.0101228
-0.00579969
-0.00271968
-0.0156042
-0.0233529
-0.029866
-0.0348733
-0.0383502
-0.0404668
-0.0414099
-0.0413533
-0.0403876
-0.0386501
-0.0361973
-0.0332211
-0.029732
-0.0260063
-0.0219248
-0.0179336
-0.0136444
-0.00987707
-0.00567293
-0.00265122
-0.0519096
-0.100013
-0.142557
-0.179541
-0.211199
-0.237943
-0.260722
-0.28043
-0.297368
-0.320792
-0.0245823
-0.0707865
-0.111693
-0.147652
-0.178635
-0.205591
-0.227883
-0.24899
-0.264689
-0.287975
-8.79744e-05
-0.043947
-0.0827116
-0.11721
-0.146878
-0.173618
-0.195205
-0.216918
-0.232519
-0.25443
0.0217757
-0.019914
-0.0568154
-0.0900932
-0.118667
-0.145065
-0.166304
-0.187831
-0.20403
-0.224595
0.0412476
0.00141101
-0.0339757
-0.0662144
-0.0939643
-0.119839
-0.140902
-0.16177
-0.178241
-0.197233
0.0585783
0.0203799
-0.0136946
-0.0449044
-0.0719008
-0.0970108
-0.117767
-0.137722
-0.153956
-0.171642
0.0740354
0.0373307
0.00444993
-0.0257097
-0.0519443
-0.0761631
-0.0964667
-0.115543
-0.131406
-0.148177
0.0878439
0.0525073
0.0207225
-0.00841499
-0.0339072
-0.0572674
-0.0770932
-0.0954665
-0.110949
-0.126911
0.100175
0.0660808
0.0352957
0.00710688
-0.0176931
-0.0402946
-0.0596573
-0.0774322
-0.092477
-0.107617
0.111161
0.0781829
0.0483042
0.0209749
-0.0031847
-0.0251121
-0.0440102
-0.0612172
-0.0757991
-0.0901627
0.120906
0.0889231
0.0598637
0.0333081
0.00974382
-0.011571
-0.0300122
-0.0466876
-0.0608467
-0.0745178
0.129493
0.0983933
0.0700722
0.0442103
0.0211949
0.000434038
-0.0175859
-0.033788
-0.0475822
-0.0606399
0.136989
0.106669
0.0790088
0.0537641
0.0312443
0.0109745
-0.00667351
-0.0224629
-0.0359418
-0.048461
0.143446
0.113813
0.0867361
0.0620338
0.0399526
0.0201114
0.00278541
-0.0126481
-0.0258577
-0.0379182
0.148922
0.119883
0.0933084
0.0690739
0.0473734
0.0279002
0.0108478
-0.00428709
-0.0172762
-0.0289611
0.153428
0.124914
0.098764
0.0749272
0.0535513
0.0343868
0.0175594
0.00266442
-0.0101543
-0.0215461
0.156989
0.128906
0.103126
0.0796267
0.0585207
0.039606
0.022955
0.00824141
-0.00445695
-0.0156362
0.159609
0.131892
0.106428
0.083207
0.0623168
0.0435935
0.0270701
0.0124793
-0.000149953
-0.0111982
0.161318
0.133898
0.108693
0.0856966
0.0649759
0.0463931
0.0299544
0.0154336
0.00282556
-0.008174
0.162048
0.134844
0.10982
0.0869874
0.0663915
0.0479088
0.0315266
0.0170472
0.00444067
-0.00655715
0.655062
0.656397
0.647715
0.629887
0.603887
0.568621
0.519919
0.451181
0.360577
0.295624
0.585909
0.580027
0.55989
0.532454
0.49825
0.453945
0.394126
0.311969
0.205982
0.129621
0.513389
0.498779
0.469393
0.433981
0.391918
0.338521
0.267928
0.173383
0.0532681
-0.0318176
0.431518
0.410584
0.375699
0.334704
0.285941
0.224223
0.14393
0.0389548
-0.0937513
-0.183342
0.346322
0.320385
0.281618
0.23631
0.181935
0.113047
0.0243145
-0.0885345
-0.230679
-0.319548
0.262751
0.232241
0.190247
0.141321
0.0822687
0.00752057
-0.0883045
-0.208365
-0.349024
-0.438068
0.182788
0.148232
0.103731
0.0520116
-0.0106394
-0.0896463
-0.190124
-0.313492
-0.449799
-0.536688
0.107512
0.0696639
0.0235626
-0.0299071
-0.0948522
-0.176404
-0.278609
-0.401673
-0.531671
-0.613574
0.0375415
-0.00251481
-0.0488958
-0.103249
-0.169436
-0.251457
-0.352753
-0.472107
-0.592708
-0.667914
-0.0280175
-0.0672293
-0.113125
-0.167476
-0.233387
-0.314084
-0.412046
-0.524227
-0.632192
-0.700198
1.10929
1.12782
1.14929
1.1738
1.20127
1.2314
1.2633
1.29441
1.32136
1.35119
1.10258
1.11988
1.14041
1.16393
1.19017
1.21878
1.24881
1.27762
1.30178
1.32946
1.08893
1.1038
1.12249
1.14407
1.16789
1.19348
1.21979
1.244
1.26282
1.28597
1.06793
1.0793
1.09531
1.11406
1.13433
1.15549
1.17634
1.19379
1.20477
1.22127
1.03908
1.04601
1.05865
1.07377
1.08946
1.1049
1.11868
1.12736
1.12814
1.13614
1.0019
1.00353
1.01215
1.02296
1.0332
1.04182
1.04715
1.04532
1.03377
1.03173
0.956138
0.951885
0.956136
0.962081
0.966049
0.966809
0.96246
0.948636
0.922904
0.909634
0.900232
0.889759
0.890021
0.891155
0.88843
0.88064
0.865722
0.83879
0.797458
0.77195
0.834864
0.818549
0.815496
0.811309
0.801122
0.784222
0.758229
0.717573
0.659897
0.62126
0.752766
0.738335
0.734567
0.724527
0.706163
0.679722
0.642237
0.587454
0.513144
0.46108
1.00006
1.00012
1.00075
1.00187
1.0032
1.00468
1.0064
1.00847
1.01098
1.01399
1.01762
1.0219
1.02692
1.03281
1.03968
1.04765
1.05688
1.06748
1.07965
1.09348
1
1.00002
1.00057
1.00156
1.00275
1.00409
1.00568
1.00761
1.00996
1.0128
1.01622
1.02027
1.02504
1.03063
1.03717
1.04475
1.05352
1.06358
1.07509
1.08808
0.99994
0.999812
1.00015
1.00088
1.00181
1.00289
1.0042
1.00584
1.00787
1.01037
1.01337
1.01696
1.02122
1.02623
1.03208
1.03887
1.04669
1.05563
1.06579
1.07706
0.99983
0.999456
0.999446
0.999795
1.00033
1.00103
1.00193
1.00312
1.00465
1.00661
1.00899
1.01188
1.01535
1.01946
1.02426
1.02981
1.03617
1.04336
1.05139
1.05997
0.999662
0.998934
0.998455
0.998281
0.99829
0.998446
0.998792
0.999382
1.00026
1.00145
1.00299
1.00494
1.00732
1.01018
1.01352
1.01735
1.02167
1.02639
1.03147
1.03624
0.999427
0.998226
0.997157
0.996325
0.99566
0.995122
0.99473
0.994529
0.994555
0.99479
0.995275
0.996017
0.997015
0.998245
0.99969
1.00127
1.00293
1.00439
1.00561
1.00535
0.999117
0.997311
0.99553
0.993912
0.992436
0.991061
0.989777
0.988566
0.987496
0.986557
0.985735
0.984992
0.984279
0.9835
0.982582
0.981311
0.9796
0.976907
0.97329
0.966809
0.998721
0.996167
0.993551
0.991025
0.988612
0.986229
0.983844
0.981553
0.979273
0.976946
0.974539
0.971975
0.969181
0.965974
0.96224
0.957563
0.951863
0.944089
0.934583
0.919817
0.998254
0.994802
0.991227
0.98763
0.984092
0.980618
0.977159
0.973594
0.969874
0.965937
0.961723
0.957086
0.951916
0.945896
0.938911
0.930247
0.920016
0.906305
0.890287
0.865368
0.997692
0.993034
0.988375
0.983756
0.979114
0.974395
0.969539
0.964465
0.959101
0.953331
0.947051
0.940021
0.932089
0.922723
0.911808
0.898019
0.881747
0.85926
0.833793
0.793652
0.997202
0.991624
0.986039
0.980355
0.974512
0.968465
0.962161
0.955506
0.948394
0.940657
0.932149
0.922557
0.911672
0.898846
0.88386
0.865235
0.842952
0.812995
0.775633
0.718118
0.996742
0.990257
0.983725
0.976997
0.970026
0.962779
0.955197
0.947162
0.938551
0.929165
0.91884
0.907228
0.894114
0.878815
0.861104
0.839564
0.814084
0.78178
0.743261
0.695011
0.996277
0.9889
0.981423
0.973651
0.965563
0.957143
0.948324
0.938972
0.928947
0.918038
0.906076
0.892708
0.877721
0.860477
0.840763
0.817417
0.790398
0.757883
0.720467
0.675797
0.995804
0.987557
0.979153
0.970327
0.961108
0.951511
0.941468
0.930828
0.919441
0.907089
0.893605
0.878646
0.862016
0.843138
0.821847
0.797197
0.769259
0.736591
0.699851
0.656645
0.995326
0.986236
0.976934
0.967061
0.956709
0.945945
0.934709
0.922833
0.910159
0.896466
0.881596
0.865226
0.847185
0.826958
0.804441
0.778821
0.750272
0.717489
0.681343
0.639551
0.994851
0.984945
0.974786
0.963889
0.952422
0.94052
0.928137
0.915093
0.901219
0.886299
0.870187
0.852585
0.83335
0.812025
0.788558
0.762235
0.733308
0.700604
0.66513
0.624779
0.994381
0.983694
0.972729
0.960849
0.948299
0.935299
0.921825
0.907686
0.892706
0.876673
0.859456
0.840785
0.820546
0.798331
0.774132
0.747321
0.7182
0.68574
0.650949
0.611915
0.993922
0.982495
0.970784
0.957972
0.944384
0.930334
0.915831
0.900677
0.884684
0.86765
0.849457
0.829864
0.808781
0.785849
0.761089
0.733959
0.704773
0.672645
0.638505
0.600666
0.993476
0.981358
0.968967
0.955283
0.94071
0.925668
0.910205
0.894116
0.877206
0.859278
0.840227
0.819843
0.798053
0.774548
0.749363
0.722038
0.692875
0.66112
0.627599
0.590858
0.993049
0.980293
0.96729
0.952801
0.937304
0.921336
0.904985
0.888046
0.870311
0.851589
0.83179
0.810729
0.788352
0.764391
0.738888
0.711459
0.682376
0.651013
0.61808
0.582353
0.992645
0.979307
0.965762
0.950537
0.934188
0.917365
0.900204
0.882497
0.864026
0.844606
0.824157
0.802523
0.779658
0.755338
0.7296
0.702131
0.673167
0.6422
0.60982
0.575022
0.99227
0.978407
0.964384
0.948497
0.931373
0.913775
0.895883
0.877491
0.858369
0.838341
0.817333
0.795215
0.771947
0.747345
0.721438
0.693976
0.665152
0.634571
0.602704
0.568748
0.991925
0.977592
0.963152
0.94668
0.92887
0.910583
0.89204
0.873041
0.853351
0.832798
0.811313
0.78879
0.765193
0.740371
0.714345
0.686919
0.658248
0.628031
0.596631
0.563429
0.991612
0.976853
0.962046
0.945079
0.926685
0.907799
0.888685
0.869156
0.848975
0.827976
0.80609
0.783231
0.759366
0.734375
0.708267
0.680897
0.652378
0.622495
0.591513
0.558976
0.991343
0.976167
0.961034
0.943686
0.924827
0.905434
0.885822
0.865837
0.845242
0.823869
0.801651
0.778517
0.754437
0.729318
0.703157
0.675851
0.647476
0.617892
0.587275
0.555312
0.991126
0.975517
0.960111
0.942522
0.923323
0.903504
0.88346
0.863086
0.842148
0.820472
0.797984
0.774629
0.750379
0.725165
0.698972
0.67173
0.643485
0.614158
0.583853
0.552372
0.990977
0.974916
0.959332
0.941647
0.922205
0.90202
0.881603
0.86091
0.839698
0.81778
0.795077
0.771549
0.747169
0.721884
0.695672
0.668491
0.640357
0.611243
0.581192
0.550101
0.990797
0.974406
0.958793
0.941091
0.921426
0.900914
0.880208
0.859286
0.837876
0.815776
0.792911
0.769255
0.74478
0.719448
0.693227
0.666095
0.638052
0.609105
0.579255
0.548461
0.991347
0.97524
0.959564
0.941356
0.921095
0.900179
0.879261
0.85821
0.836677
0.814452
0.791475
0.767732
0.743196
0.717835
0.69161
0.664514
0.636535
0.607708
0.578007
0.547434
0.989641
0.975632
0.961883
0.943037
0.921553
0.899966
0.878842
0.85772
0.836116
0.813816
0.790772
0.76698
0.742412
0.717034
0.690807
0.66373
0.635784
0.607019
0.577405
0.546986
0.649255
0.577199
0.507658
0.432265
0.352885
0.275013
0.20058
0.129757
0.063035
0.00224671
0.640742
0.566172
0.494173
0.423857
0.350669
0.278136
0.209058
0.143539
0.0823275
0.026639
0.625987
0.554988
0.483447
0.417589
0.350834
0.28351
0.218927
0.157944
0.101004
0.0483783
0.610453
0.544755
0.47536
0.412424
0.350853
0.28841
0.22782
0.170595
0.117149
0.0675489
0.596087
0.535238
0.469003
0.408537
0.351077
0.293092
0.236162
0.182123
0.131678
0.0846813
0.583205
0.526472
0.463843
0.405819
0.351581
0.297437
0.243855
0.192614
0.144718
0.0999874
0.571773
0.518541
0.459549
0.404014
0.352391
0.301451
0.250879
0.20214
0.156436
0.113676
0.561725
0.511506
0.455947
0.402885
0.353477
0.305175
0.257244
0.210757
0.166968
0.125931
0.552972
0.505355
0.452921
0.402233
0.354762
0.308635
0.262978
0.218508
0.176414
0.136894
0.545401
0.500032
0.450384
0.401906
0.356159
0.311842
0.268118
0.225436
0.184852
0.146674
0.538899
0.495465
0.448262
0.401793
0.357585
0.31479
0.272697
0.231579
0.192341
0.155355
0.533357
0.491577
0.44649
0.401812
0.358969
0.317462
0.276739
0.236976
0.198929
0.163001
0.528677
0.488294
0.445011
0.401895
0.360251
0.319835
0.28026
0.241657
0.204658
0.169665
0.524769
0.485543
0.443772
0.401991
0.36138
0.321884
0.283265
0.245647
0.209564
0.175388
0.521558
0.483264
0.442727
0.402056
0.362315
0.323585
0.285755
0.248959
0.213661
0.18024
0.518977
0.481402
0.441838
0.402058
0.363025
0.324917
0.287728
0.251606
0.216939
0.184066
0.516969
0.47991
0.441072
0.401972
0.363487
0.325866
0.289185
0.253612
0.219499
0.187186
0.51549
0.47874
0.440387
0.401759
0.363668
0.326413
0.290126
0.254991
0.221328
0.189428
0.514535
0.477889
0.439751
0.401349
0.363479
0.326468
0.290476
0.255684
0.222388
0.190855
0.514155
0.477502
0.439344
0.4009
0.363021
0.326076
0.290226
0.255636
0.222564
0.191275
)
;

boundaryField
{
    bottom
    {
        type            symmetryPlane;
    }
    right
    {
        type            fixedValue;
        value           uniform 0;
    }
    top
    {
        type            symmetryPlane;
    }
    left
    {
        type            fixedValue;
        value           uniform 1;
    }
    cylinder
    {
        type            zeroGradient;
    }
    defaultFaces
    {
        type            empty;
    }
}


// ************************************************************************* //
