/*--------------------------------*- C++ -*----------------------------------*\
| =========                 |                                                 |
| \\      /  F ield         | OpenFOAM: The Open Source CFD Toolbox           |
|  \\    /   O peration     | Version:  4.1                                   |
|   \\  /    A nd           | Web:      www.OpenFOAM.org                      |
|    \\/     M anipulation  |                                                 |
\*---------------------------------------------------------------------------*/
FoamFile
{
    version     2.0;
    format      ascii;
    class       volScalarField;
    location    "10.2";
    object      p;
}
// * * * * * * * * * * * * * * * * * * * * * * * * * * * * * * * * * * * * * //

dimensions      [0 2 -2 0 0 0 0];

internalField   nonuniform List<scalar> 
2000
(
0.0117332
0.0210252
0.0305122
0.0393113
0.0463444
0.0514103
0.0550862
0.0565033
0.0581069
0.0526256
-0.00650548
0.00634693
0.0181642
0.0288084
0.0376374
0.0447085
0.0504105
0.0548044
0.0587533
0.0595785
-0.0296303
-0.012415
0.00198421
0.0148046
0.0262469
0.0364661
0.0456756
0.0539517
0.0616066
0.0681327
-0.0578038
-0.035514
-0.0182146
-0.00234831
0.0132088
0.0281437
0.0421029
0.0548555
0.0667644
0.0765931
-0.0907446
-0.062674
-0.0418994
-0.0212764
0.000422856
0.0216169
0.0411861
0.0588285
0.0745413
0.0877987
-0.126781
-0.0927658
-0.0671949
-0.0393598
-0.00953813
0.0189644
0.0445498
0.0669691
0.0864206
0.102922
-0.163107
-0.12361
-0.0907408
-0.0531308
-0.0139219
0.02219
0.0536351
0.0805635
0.103495
0.123168
-0.19552
-0.151596
-0.108412
-0.0591346
-0.010281
0.0330141
0.0697821
0.100729
0.126909
0.149579
-0.219348
-0.171787
-0.116203
-0.054568
0.00331252
0.052891
0.0941708
0.128506
0.157485
0.182599
-0.230347
-0.179191
-0.110534
-0.037335
0.0282645
0.0829361
0.127769
0.164733
0.195862
0.222558
0.086499
0.080562
0.0772389
0.0738503
0.069914
0.0655503
0.0608549
0.0558663
0.0505073
0.0445571
0.0837526
0.0783079
0.0752111
0.0719447
0.068114
0.0638615
0.0592972
0.054508
0.0494567
0.0436227
0.0787324
0.0742611
0.0716003
0.0686451
0.0651104
0.0611635
0.0569366
0.0525771
0.0481619
0.042787
0.0722962
0.0691146
0.0671523
0.0647868
0.0618349
0.0584848
0.0548898
0.0512099
0.047729
0.0437247
0.0652979
0.0635482
0.0625744
0.0611432
0.0591181
0.0566883
0.0540383
0.0512766
0.0489265
0.0471271
0.0583183
0.0580101
0.0583118
0.0581732
0.0574021
0.0561433
0.0546144
0.0529758
0.0518323
0.0528584
0.0514783
0.0526145
0.0544137
0.055878
0.0566202
0.0566645
0.0562763
0.0557163
0.0549376
0.0604755
0.0443728
0.0470248
0.050518
0.0538057
0.0561949
0.0575725
0.0582741
0.0587037
0.0571815
0.0667724
0.0361322
0.0405262
0.0458753
0.0510515
0.0550765
0.0576696
0.0592178
0.0603634
0.0587665
0.0681685
0.02564
0.0321658
0.0395115
0.0465361
0.0520608
0.0557895
0.0582207
0.0592084
0.0590271
0.0617338
0.0379621
0.0311406
0.0238936
0.0162882
0.00843063
0.000453013
-0.0074742
-0.0151435
-0.0223153
-0.0287251
-0.0340855
-0.0380834
-0.0404013
-0.0407709
-0.0390503
-0.035177
-0.0287952
-0.0196364
-0.00911835
-0.00184344
0.0363147
0.0294586
0.0221664
0.0144495
0.00643664
-0.00173792
-0.00990234
-0.017844
-0.0253135
-0.0320322
-0.0377039
-0.0420172
-0.0446361
-0.0452487
-0.0436246
-0.0396272
-0.03306
-0.023702
-0.012586
-0.00333923
0.0341881
0.0272868
0.019949
0.0120382
0.00374911
-0.00477397
-0.0133592
-0.0217889
-0.0298032
-0.037104
-0.0433641
-0.0482482
-0.0514246
-0.0525351
-0.0512213
-0.0471244
-0.0403063
-0.0305257
-0.0183611
-0.00589901
0.0329395
0.0262003
0.0188577
0.0107208
0.00209995
-0.00683826
-0.0159239
-0.024938
-0.0336157
-0.0416476
-0.0486825
-0.0543403
-0.0582388
-0.0600195
-0.0592782
-0.0556071
-0.048449
-0.0380582
-0.0245395
-0.00862409
0.0342794
0.0269519
0.0197578
0.0115382
0.00260549
-0.00673734
-0.0162903
-0.0258482
-0.0351532
-0.0438911
-0.0516981
-0.0581681
-0.0628639
-0.0653511
-0.0652266
-0.0619465
-0.0550882
-0.0442
-0.0296
-0.0112221
0.0378169
0.0292412
0.022412
0.0144147
0.00527036
-0.00441637
-0.0143254
-0.0242826
-0.0340642
-0.0433538
-0.0517729
-0.058901
-0.0642825
-0.0674382
-0.0678916
-0.0651028
-0.058515
-0.0476335
-0.0322493
-0.0123364
0.0422559
0.0319792
0.0258647
0.0185365
0.00935838
-0.000571778
-0.0106743
-0.0208385
-0.0309101
-0.0405652
-0.0494003
-0.0569798
-0.062839
-0.0664741
-0.0673822
-0.0649771
-0.058715
-0.0479599
-0.0325782
-0.0123695
0.0462681
0.0342397
0.0292045
0.0228811
0.0138344
0.00386477
-0.00617453
-0.0163053
-0.0264468
-0.0362427
-0.0452649
-0.0530718
-0.0592037
-0.063136
-0.0643644
-0.062263
-0.0563117
-0.0457134
-0.0311223
-0.0116495
0.0482215
0.0365167
0.0331689
0.0275881
0.0186886
0.00899183
-0.000781078
-0.0108245
-0.020983
-0.0308033
-0.0398493
-0.0476875
-0.0538863
-0.0579257
-0.0594031
-0.0577721
-0.0524387
-0.0429979
-0.0288867
-0.0106495
0.0442274
0.0385745
0.0369409
0.0311405
0.0232164
0.0149763
0.00620754
-0.00326833
-0.0130699
-0.0226683
-0.0316322
-0.0395147
-0.0458838
-0.0501974
-0.0520164
-0.0508535
-0.0463938
-0.037856
-0.0254962
-0.00946186
0.0522443
0.0508229
0.0435265
0.0349744
0.0268053
0.0186177
0.00988576
0.000645724
-0.00873533
-0.0178228
-0.0262386
-0.0335725
-0.0394316
-0.0433445
-0.044987
-0.0438524
-0.0397316
-0.0323243
-0.0216471
-0.00810104
0.0518918
0.0492552
0.0426496
0.0351108
0.0276818
0.0200345
0.0118731
0.00332705
-0.00525676
-0.0134976
-0.0210512
-0.0275755
-0.0327208
-0.0361041
-0.0373942
-0.036329
-0.0326877
-0.0264302
-0.0174693
-0.00647996
0.0562988
0.05055
0.0445079
0.0380266
0.0310832
0.0236321
0.015748
0.00766403
-0.000307926
-0.00786368
-0.0147146
-0.0205776
-0.025157
-0.0282424
-0.0294869
-0.0287412
-0.0257823
-0.0207696
-0.0136261
-0.00505589
0.0632499
0.0549724
0.0486715
0.0425823
0.0358409
0.0284359
0.0206762
0.0128857
0.00534771
-0.00171178
-0.00806301
-0.0134951
-0.0177716
-0.020731
-0.0221183
-0.0217945
-0.019633
-0.0158529
-0.0104047
-0.0038797
0.0715899
0.0616838
0.0544184
0.0479984
0.0411753
0.0337487
0.0260433
0.0184207
0.0111538
0.00441549
-0.00161918
-0.00680479
-0.0109465
-0.0139122
-0.0154956
-0.0156683
-0.0143344
-0.0116925
-0.00772156
-0.00288851
0.0809629
0.0697226
0.061185
0.0540283
0.0469088
0.0393882
0.0316744
0.0241109
0.0169686
0.0103937
0.00451979
-0.000555926
-0.00467355
-0.00775064
-0.00963764
-0.0103456
-0.00980024
-0.00817338
-0.00547184
-0.00206469
0.090644
0.0782604
0.0685172
0.0605092
0.052951
0.0452428
0.0374475
0.0298521
0.022718
0.0161796
0.010342
0.00526325
0.00105748
-0.0022165
-0.00446299
-0.00570421
-0.00588771
-0.00516805
-0.0035667
-0.00138234
0.100056
0.0868643
0.076137
0.0672944
0.0592077
0.0512168
0.0432655
0.0355657
0.0283555
0.0217581
0.0158592
0.0106875
0.00632319
0.00278679
0.000156438
-0.0016059
-0.00246446
-0.00256545
-0.00192826
-0.000808933
0.109077
0.0953647
0.0838521
0.0742309
0.0655711
0.0572254
0.0490554
0.0411958
0.0338491
0.0271241
0.0210932
0.01576
0.0111804
0.00734839
0.00432584
0.00205608
0.000569519
-0.000279345
-0.000495793
-0.000317904
0.117725
0.103639
0.0914823
0.0811557
0.0719218
0.0631819
0.0547492
0.0466894
0.039165
0.0322646
0.0260519
0.0205094
0.015679
0.0115313
0.00811491
0.00535487
0.00328489
0.00175252
0.00077352
0.000109626
0.125926
0.11155
0.098863
0.0879173
0.0781399
0.0689956
0.0602748
0.051988
0.0442599
0.0371524
0.0307258
0.0249449
0.0198444
0.015371
0.0115667
0.00833883
0.00572899
0.00357178
0.00190758
0.000486275
0.133555
0.118971
0.105864
0.0943878
0.0841127
0.0745732
0.0655548
0.057027
0.0490819
0.0417582
0.0350944
0.02906
0.0236808
0.0188821
0.0147041
0.011036
0.00792961
0.00520316
0.00292275
0.000819976
0.140512
0.125811
0.112382
0.100456
0.0897335
0.0798196
0.0705078
0.0617364
0.0535666
0.0460155
0.0391194
0.0328322
0.0271772
0.0220638
0.0175332
0.0134576
0.00989885
0.00665857
0.003827
0.00111554
0.146735
0.131992
0.118323
0.106019
0.0948984
0.0846389
0.0750492
0.066044
0.0576503
0.0498813
0.04276
0.03623
0.0303118
0.0249033
0.0200476
0.0156022
0.0116376
0.00794096
0.00462251
0.00137573
0.152174
0.137442
0.123598
0.110979
0.0995096
0.0889396
0.0790964
0.0698768
0.0612922
0.0533081
0.0459739
0.0392169
0.033056
0.0273801
0.0222328
0.0174608
0.0131401
0.00904768
0.00530772
0.00160185
0.15678
0.142094
0.128125
0.115247
0.10348
0.0926394
0.0825727
0.0731614
0.064396
0.0562355
0.0487132
0.0417551
0.0353802
0.0294717
0.024072
0.0190215
0.0143978
0.00997372
0.00587955
0.00179402
0.160508
0.145886
0.13183
0.118743
0.106731
0.0956676
0.0854157
0.0758465
0.0669332
0.058621
0.0509396
0.0438133
0.0372593
0.031159
0.0255511
0.0202744
0.0154041
0.0107148
0.00633567
0.00195155
0.163339
0.148775
0.13465
0.1214
0.109197
0.097963
0.0875709
0.0778821
0.0688595
0.0604289
0.0526244
0.0453681
0.0386757
0.0324286
0.0266611
0.0212135
0.0161559
0.0112687
0.00667527
0.00207267
0.16532
0.150778
0.136582
0.123199
0.110854
0.099501
0.0890133
0.0792413
0.0701333
0.0616352
0.0537496
0.0464059
0.0396198
0.0332744
0.027399
0.0218376
0.0166536
0.011636
0.00689886
0.00215509
0.166476
0.151924
0.13765
0.124163
0.111724
0.100297
0.089755
0.0799411
0.0707935
0.0622479
0.0543159
0.0469281
0.0400932
0.0336993
0.0277675
0.0221508
0.0169008
0.0118212
0.00700841
0.00219958
0.243628
0.203326
0.169067
0.140656
0.117892
0.0999173
0.0858229
0.0738008
0.0643307
0.0473407
0.260737
0.221161
0.187077
0.15788
0.133601
0.112665
0.0958609
0.0786193
0.0679336
0.0503273
0.275975
0.237546
0.204221
0.174714
0.149751
0.126493
0.108316
0.0885354
0.0781237
0.061545
0.289461
0.252164
0.219615
0.189917
0.164795
0.140488
0.122204
0.102241
0.0905987
0.0732347
0.30134
0.265046
0.233186
0.203502
0.178498
0.154022
0.135485
0.115269
0.101193
0.0832477
0.31181
0.276463
0.245258
0.215837
0.190961
0.166505
0.147148
0.12647
0.110882
0.0932131
0.321078
0.286666
0.256088
0.227073
0.202225
0.177808
0.157739
0.13707
0.12108
0.103582
0.329322
0.295818
0.265823
0.237266
0.21245
0.188228
0.167917
0.14754
0.131348
0.113649
0.336674
0.304026
0.274575
0.246508
0.221832
0.19794
0.177633
0.157428
0.140931
0.123082
0.343232
0.311371
0.282445
0.254886
0.230439
0.206881
0.186594
0.166463
0.149739
0.131995
0.349064
0.317922
0.289501
0.262439
0.238248
0.214987
0.194726
0.17474
0.157925
0.140429
0.354215
0.323729
0.295782
0.269192
0.245253
0.222288
0.202096
0.182349
0.165491
0.148261
0.358714
0.328828
0.301316
0.275171
0.251476
0.228829
0.208729
0.189255
0.17234
0.155363
0.362584
0.333248
0.306128
0.280403
0.256938
0.234616
0.214601
0.195388
0.178405
0.161671
0.365842
0.337013
0.31024
0.284905
0.261647
0.239636
0.219688
0.200714
0.183667
0.16715
0.36852
0.340144
0.313668
0.288685
0.26561
0.243879
0.223988
0.205221
0.188115
0.171767
0.370628
0.342652
0.316428
0.291748
0.268835
0.247345
0.227506
0.208901
0.19174
0.175493
0.372143
0.344517
0.318533
0.294111
0.271346
0.250051
0.230264
0.211768
0.194551
0.178327
0.373054
0.345727
0.319967
0.29577
0.273151
0.252018
0.232294
0.213869
0.196608
0.180343
0.373328
0.346209
0.320608
0.296578
0.27409
0.253085
0.233439
0.215078
0.197819
0.18152
0.860074
0.862884
0.857513
0.844889
0.825835
0.799627
0.7631
0.711398
0.644521
0.602244
0.804046
0.802066
0.787443
0.766815
0.741077
0.707671
0.662359
0.600065
0.5209
0.469285
0.743061
0.734513
0.712424
0.685384
0.653482
0.61297
0.559142
0.48698
0.396578
0.336964
0.672992
0.659298
0.632743
0.601327
0.564308
0.517419
0.455982
0.375393
0.275346
0.210078
0.598972
0.581159
0.551527
0.51683
0.475589
0.423305
0.355484
0.268469
0.161144
0.0939454
0.52549
0.503935
0.471893
0.434617
0.389993
0.333419
0.260517
0.168783
0.0597743
-0.00764646
0.454774
0.429922
0.396199
0.357146
0.310156
0.250646
0.174513
0.0801701
-0.0252848
-0.0919105
0.388144
0.360718
0.32628
0.286417
0.238285
0.177349
0.100354
0.00679733
-0.0928408
-0.15674
0.326667
0.29769
0.263846
0.224186
0.175735
0.11524
0.039884
-0.0497432
-0.141285
-0.201057
0.270178
0.242578
0.209892
0.17112
0.123824
0.065457
-0.00605294
-0.0888078
-0.169827
-0.225093
1.17568
1.19169
1.20947
1.22905
1.25035
1.27314
1.29675
1.31926
1.33877
1.36196
1.17219
1.18736
1.20449
1.22335
1.24377
1.26547
1.28774
1.30861
1.32619
1.3481
1.16487
1.17838
1.19422
1.21168
1.23034
1.24986
1.26946
1.28706
1.30094
1.32009
1.15311
1.16413
1.17808
1.1935
1.20958
1.22591
1.24158
1.25434
1.26279
1.27777
1.13609
1.14383
1.15537
1.16816
1.18092
1.19311
1.20366
1.21013
1.21145
1.22095
1.1129
1.11662
1.12525
1.13492
1.1437
1.1509
1.15529
1.15416
1.14677
1.14958
1.08277
1.08187
1.08727
1.09341
1.0976
1.09902
1.09629
1.08638
1.06884
1.06391
1.04432
1.03825
1.04053
1.04309
1.04229
1.03734
1.02675
1.00711
0.978188
0.964679
0.997245
0.986241
0.986011
0.984583
0.978082
0.966171
0.947168
0.917144
0.875902
0.853216
0.93551
0.925199
0.924463
0.918596
0.90581
0.886581
0.858788
0.817935
0.763867
0.731454
1.00265
1.00813
1.01424
1.02067
1.02715
1.03367
1.04031
1.04714
1.05421
1.06156
1.06922
1.07721
1.08559
1.09442
1.10378
1.11375
1.12439
1.13581
1.1481
1.16135
1.00265
1.00816
1.01426
1.02065
1.02709
1.03356
1.04016
1.04695
1.05397
1.06126
1.06884
1.07673
1.08499
1.09369
1.10289
1.11265
1.12305
1.13416
1.14606
1.15882
1.00269
1.00822
1.01426
1.02056
1.02691
1.03332
1.03983
1.04653
1.05343
1.0606
1.068
1.07568
1.0837
1.09212
1.10097
1.11031
1.12018
1.13065
1.14171
1.15345
1.00273
1.00826
1.0142
1.02037
1.02659
1.03287
1.03924
1.04578
1.0525
1.05944
1.06656
1.07391
1.08154
1.08949
1.09777
1.10642
1.11544
1.12486
1.13457
1.14464
1.00275
1.00828
1.01406
1.02003
1.02607
1.03216
1.03834
1.04466
1.05113
1.05766
1.06434
1.07121
1.07827
1.08553
1.09298
1.1006
1.10836
1.11624
1.12398
1.13159
1.00275
1.00824
1.01381
1.0195
1.02526
1.03108
1.03697
1.04296
1.04901
1.05505
1.06117
1.06738
1.07365
1.07995
1.08624
1.09244
1.09846
1.10418
1.10923
1.11343
1.00268
1.00807
1.01337
1.0187
1.02411
1.02958
1.03513
1.04069
1.0461
1.05149
1.05688
1.06222
1.06745
1.07248
1.07722
1.08151
1.0852
1.08802
1.08953
1.08919
1.00253
1.00767
1.01262
1.01751
1.02255
1.02767
1.03266
1.03748
1.04221
1.04685
1.05134
1.05558
1.05948
1.06288
1.06566
1.06753
1.06831
1.06739
1.06437
1.05803
1.0023
1.00702
1.01161
1.01612
1.02058
1.02498
1.0293
1.03348
1.03746
1.04117
1.04455
1.04743
1.04969
1.05105
1.05137
1.05008
1.04723
1.04172
1.03381
1.02002
1.00213
1.00612
1.00998
1.0139
1.01783
1.02169
1.02537
1.02877
1.03182
1.03439
1.0364
1.03759
1.03788
1.03676
1.03426
1.02919
1.02204
1.00959
0.994365
0.968181
1.00152
1.00485
1.0081
1.01133
1.01456
1.01765
1.02046
1.02285
1.02474
1.02598
1.02647
1.02587
1.02408
1.02038
1.01479
1.00571
0.993578
0.974043
0.948644
0.903715
1.00121
1.00348
1.00576
1.00832
1.01093
1.01329
1.01522
1.01659
1.01734
1.01728
1.01633
1.01406
1.0104
1.00453
0.996544
0.984673
0.969555
0.947334
0.920578
0.883002
1.00118
1.00208
1.00313
1.00496
1.00698
1.00865
1.00972
1.01006
1.00968
1.00836
1.00603
1.00223
0.996927
0.989247
0.979412
0.965693
0.94903
0.9262
0.900217
0.865443
1.00041
1.00056
1.00068
1.00167
1.00304
1.004
1.00419
1.00349
1.00197
0.999405
0.995768
0.990545
0.983767
0.974537
0.96321
0.948125
0.930483
0.907217
0.881602
0.84784
0.999872
0.998904
0.997779
0.998046
0.998974
0.999365
0.998719
0.996974
0.994309
0.990554
0.985686
0.97916
0.971064
0.9605
0.947954
0.931795
0.913417
0.889782
0.864404
0.831654
1.00053
0.99742
0.99438
0.994087
0.994875
0.994858
0.993408
0.990611
0.986825
0.981928
0.975914
0.968198
0.958927
0.947212
0.93365
0.91664
0.897698
0.873881
0.848793
0.817129
0.99937
0.995501
0.991475
0.990723
0.991346
0.990855
0.988498
0.984572
0.979657
0.973667
0.966578
0.957769
0.947436
0.93472
0.920297
0.902622
0.883262
0.859433
0.834654
0.804004
1.00019
0.994489
0.989128
0.988296
0.988894
0.987737
0.984199
0.978985
0.972918
0.965881
0.957779
0.947952
0.936645
0.92305
0.907891
0.889702
0.87003
0.846296
0.8218
0.79208
0.998469
0.991668
0.986709
0.987037
0.988009
0.985904
0.98076
0.97404
0.966785
0.958731
0.949642
0.93884
0.926616
0.91224
0.896438
0.87785
0.857933
0.834358
0.810109
0.781256
0.998821
0.988368
0.982936
0.985862
0.987865
0.984581
0.977628
0.969466
0.961162
0.952184
0.942153
0.930429
0.917354
0.902293
0.885929
0.867035
0.846918
0.823543
0.799506
0.771466
1.00307
0.993652
0.98952
0.991753
0.990731
0.9841
0.974854
0.965406
0.956206
0.946338
0.935358
0.922744
0.908878
0.893222
0.876367
0.857242
0.836957
0.813806
0.789948
0.762654
0.993743
1.00258
1.0149
1.01276
1.00064
0.986216
0.97347
0.962607
0.952426
0.941518
0.929466
0.915929
0.901294
0.885097
0.867801
0.848488
0.828053
0.805124
0.781416
0.754781
0.998979
1.02031
1.03795
1.02973
1.00819
0.987324
0.971757
0.959885
0.948964
0.937152
0.924131
0.90978
0.894485
0.877846
0.860182
0.840729
0.820177
0.797455
0.773885
0.747806
1.00185
1.02929
1.04881
1.03735
1.01085
0.986428
0.969332
0.956956
0.945551
0.933053
0.919264
0.904271
0.888453
0.871466
0.853504
0.833947
0.813308
0.79077
0.767328
0.741706
1.00268
1.03247
1.05237
1.03856
1.00944
0.98361
0.966174
0.9537
0.941977
0.929031
0.914735
0.899323
0.883134
0.865892
0.847695
0.828069
0.807371
0.785005
0.761682
0.736451
0.998533
1.02724
1.04928
1.03592
1.00637
0.980512
0.962939
0.950137
0.938094
0.924942
0.910454
0.894891
0.878494
0.86108
0.842702
0.823044
0.802315
0.780125
0.756904
0.732028
0.98284
0.989793
1.01098
1.01115
0.996497
0.978165
0.961721
0.94767
0.934641
0.921043
0.906635
0.891171
0.874689
0.857153
0.838633
0.818961
0.798217
0.776188
0.753056
0.728481
0.998982
0.963976
0.941939
0.953248
0.968181
0.969268
0.958589
0.94416
0.930211
0.91699
0.903175
0.888045
0.871627
0.85407
0.835489
0.815833
0.795107
0.773213
0.75018
0.725831
1.00111
0.964825
0.9368
0.944533
0.960546
0.963939
0.955325
0.942119
0.928511
0.915098
0.901102
0.885961
0.86957
0.85203
0.833426
0.813777
0.793064
0.771258
0.748315
0.724136
0.982683
0.989949
1.00611
0.997574
0.978539
0.963415
0.952338
0.941281
0.928745
0.914987
0.900397
0.884976
0.868545
0.851023
0.832415
0.812764
0.792051
0.770287
0.747401
0.723355
0.852522
0.793406
0.733849
0.669118
0.600042
0.531288
0.465269
0.402553
0.34387
0.290315
0.844117
0.783579
0.720964
0.65956
0.595287
0.530493
0.468435
0.409682
0.355034
0.305463
0.830232
0.772617
0.709457
0.650684
0.591578
0.531077
0.472524
0.417259
0.366025
0.318856
0.81548
0.762316
0.700323
0.642928
0.587821
0.531483
0.476179
0.423814
0.375354
0.330456
0.801334
0.752235
0.692457
0.636205
0.58409
0.531637
0.47952
0.429675
0.383565
0.340637
0.788121
0.742468
0.685493
0.630601
0.580687
0.531562
0.482498
0.43497
0.390856
0.349625
0.775878
0.733116
0.679138
0.625894
0.577701
0.531299
0.485058
0.439731
0.397359
0.357599
0.764584
0.724264
0.673258
0.621897
0.575186
0.530968
0.487228
0.443985
0.403185
0.36472
0.754208
0.71595
0.667785
0.61845
0.573123
0.53066
0.48906
0.44775
0.4084
0.371096
0.744709
0.708185
0.662679
0.615436
0.571462
0.530436
0.490615
0.451048
0.413042
0.376799
0.736063
0.700983
0.65792
0.612765
0.570133
0.530314
0.491944
0.453903
0.417132
0.381869
0.728272
0.694375
0.6535
0.610362
0.569055
0.530278
0.493081
0.45634
0.420685
0.386331
0.721344
0.6884
0.649422
0.608161
0.56814
0.530289
0.494038
0.458384
0.423715
0.390199
0.715283
0.683081
0.645689
0.606111
0.56731
0.530299
0.49482
0.460058
0.426242
0.393489
0.710036
0.678387
0.642296
0.604192
0.566518
0.530271
0.495424
0.461384
0.428288
0.396212
0.705559
0.6743
0.639267
0.602426
0.565758
0.530189
0.495854
0.46238
0.429868
0.398384
0.701913
0.670899
0.636683
0.600865
0.565038
0.530037
0.496107
0.463072
0.431008
0.40004
0.699179
0.668278
0.634602
0.59951
0.564308
0.529748
0.496135
0.463446
0.43177
0.401232
0.697447
0.66655
0.633114
0.598382
0.563517
0.529224
0.495833
0.463409
0.432057
0.401878
0.696711
0.665819
0.632426
0.597734
0.562897
0.528639
0.495308
0.463
0.431802
0.401833
)
;

boundaryField
{
    bottom
    {
        type            symmetryPlane;
    }
    right
    {
        type            fixedValue;
        value           uniform 0;
    }
    top
    {
        type            symmetryPlane;
    }
    left
    {
        type            fixedValue;
        value           uniform 1;
    }
    cylinder
    {
        type            zeroGradient;
    }
    defaultFaces
    {
        type            empty;
    }
}


// ************************************************************************* //
