/*--------------------------------*- C++ -*----------------------------------*\
| =========                 |                                                 |
| \\      /  F ield         | OpenFOAM: The Open Source CFD Toolbox           |
|  \\    /   O peration     | Version:  4.1                                   |
|   \\  /    A nd           | Web:      www.OpenFOAM.org                      |
|    \\/     M anipulation  |                                                 |
\*---------------------------------------------------------------------------*/
FoamFile
{
    version     2.0;
    format      ascii;
    class       volVectorField;
    location    "10.2";
    object      U;
}
// * * * * * * * * * * * * * * * * * * * * * * * * * * * * * * * * * * * * * //

dimensions      [0 1 -1 0 0 0 0];

internalField   nonuniform List<vector> 
2000
(
(-0.0387889 0.0323691 -3.07843e-22)
(-0.0281345 0.0440509 0)
(0.0582949 0.0380935 -6.04927e-21)
(0.208689 0.0269824 -3.99485e-21)
(0.409016 0.0187719 7.54152e-21)
(0.637683 0.0163928 1.29035e-20)
(0.872839 0.0209511 -4.22543e-21)
(1.08802 0.0269544 0)
(1.29985 0.0406557 4.11796e-21)
(1.43062 0.0487287 0)
(-0.0357693 0.0265358 3.1826e-22)
(0.00892077 0.0253142 -1.35268e-21)
(0.153316 0.0146943 2.36751e-21)
(0.373957 0.00665946 7.54222e-21)
(0.638188 0.0072565 -8.93807e-22)
(0.908078 0.0159025 -4.59252e-21)
(1.15362 0.0294178 3.36867e-21)
(1.35909 0.042053 4.04279e-21)
(1.52418 0.0566058 -4.11768e-21)
(1.62288 0.056329 -8.32682e-21)
(-0.0261446 0.0186909 1.24564e-21)
(0.0695678 0.00490256 -1.16676e-21)
(0.288896 -0.00479158 -1.02942e-21)
(0.583376 -0.00258916 -1.48181e-21)
(0.893207 0.0111798 -2.84087e-21)
(1.17017 0.0304795 -3.38861e-21)
(1.39097 0.0492394 -3.7789e-21)
(1.55273 0.0630819 -4.04265e-21)
(1.6635 0.0722122 -4.52327e-21)
(1.7403 0.0718256 4.85551e-21)
(-0.00730316 0.00907355 -6.46304e-22)
(0.158772 -0.0144812 -2.58282e-21)
(0.463622 -0.0148911 0)
(0.817212 0.00346344 -2.22353e-21)
(1.13775 0.0299658 4.74668e-22)
(1.38555 0.0548549 0)
(1.55745 0.0729272 0)
(1.66827 0.08236 0)
(1.74148 0.0866914 4.52348e-21)
(1.78563 0.082692 -1.02397e-20)
(0.023457 -0.00135714 1.09341e-20)
(0.278706 -0.0279826 4.39751e-23)
(0.665489 -0.0102422 2.78655e-21)
(1.04598 0.0251065 -3.18291e-22)
(1.34089 0.0588627 2.02651e-22)
(1.53823 0.0828034 -8.46994e-22)
(1.65905 0.0956987 0)
(1.73228 0.0999549 -2.33826e-21)
(1.77989 0.0993607 1.42698e-20)
(1.81763 0.0926523 -1.95838e-20)
(0.0683026 -0.0105548 -2.0349e-20)
(0.426015 -0.0293661 1.78204e-21)
(0.873049 0.011461 -5.51712e-21)
(1.24377 0.0588808 3.98364e-21)
(1.4907 0.0928811 2.0238e-22)
(1.63551 0.111346 4.66774e-22)
(1.71662 0.117955 0)
(1.76555 0.117224 2.33845e-21)
(1.80256 0.112717 -2.83642e-21)
(1.83615 0.105307 -1.53956e-20)
(0.127913 -0.0156554 0)
(0.590033 -0.0137829 0)
(1.06411 0.0485878 -3.68696e-21)
(1.39826 0.100612 3.43223e-21)
(1.59147 0.129488 1.74894e-22)
(1.69215 0.140498 -1.642e-22)
(1.74577 0.140754 -5.2684e-21)
(1.78148 0.135559 4.97988e-21)
(1.81313 0.127959 7.98306e-21)
(1.84598 0.119458 -3.80155e-21)
(0.200836 -0.0135162 6.1072e-21)
(0.755082 0.0201541 0)
(1.22432 0.0977179 -1.42704e-21)
(1.509 0.147427 5.66324e-21)
(1.65265 0.167861 -1.63388e-21)
(1.71991 0.17064 0)
(1.75629 0.16484 0)
(1.78512 0.155519 0)
(1.81525 0.145135 9.73928e-21)
(1.8483 0.135668 -9.25789e-21)
(0.282921 -0.00158257 -3.22295e-21)
(0.905865 0.0703528 -2.81808e-22)
(1.34801 0.155437 -2.86855e-21)
(1.58071 0.197496 5.46337e-22)
(1.68301 0.207563 5.20698e-22)
(1.72679 0.201984 -5.80949e-22)
(1.75309 0.190418 0)
(1.779 0.177169 1.36316e-21)
(1.80874 0.164275 7.54788e-21)
(1.84187 0.153072 -5.69406e-21)
(0.367877 0.0214099 0)
(1.03177 0.132878 -2.41955e-21)
(1.43473 0.21864 0)
(1.61914 0.249457 -5.17091e-22)
(1.68923 0.248189 -4.66695e-22)
(1.71748 0.23438 5.77294e-22)
(1.73841 0.217239 0)
(1.76336 0.20011 -1.3633e-21)
(1.79338 0.184617 -1.55727e-21)
(1.82695 0.171101 -1.9523e-21)
(-0.00812367 0.00792816 0)
(-0.0331794 0.0150427 1.10378e-21)
(-0.0694709 0.0178091 0)
(-0.105381 0.0186624 1.30206e-21)
(-0.138674 0.0187279 3.69579e-22)
(-0.169286 0.0185901 -6.63208e-22)
(-0.197525 0.0185533 6.24581e-22)
(-0.22388 0.0187673 -5.15088e-22)
(-0.249008 0.0193351 -2.14365e-23)
(-0.273806 0.0203459 -3.99618e-22)
(-0.00951223 0.0227757 3.58562e-21)
(-0.0341395 0.0435126 -2.21354e-21)
(-0.0677663 0.0517424 1.87575e-21)
(-0.100171 0.054275 -8.67168e-22)
(-0.129411 0.0543649 -3.71855e-21)
(-0.155406 0.0537438 1.37895e-21)
(-0.17841 0.0533399 0)
(-0.198803 0.0536477 5.13357e-22)
(-0.217072 0.0550137 4.40736e-22)
(-0.234521 0.0577252 0)
(-0.0120562 0.0348134 -2.39209e-21)
(-0.0360809 0.0674476 0)
(-0.0649617 0.0808276 -5.46033e-21)
(-0.091029 0.0849295 6.52063e-21)
(-0.112893 0.0847777 -1.49479e-21)
(-0.130519 0.0831397 0)
(-0.144126 0.08157 0)
(-0.153959 0.0810064 0)
(-0.160106 0.0821615 -3.20939e-21)
(-0.164213 0.0856468 3.05015e-21)
(-0.0153295 0.0429383 0)
(-0.0389801 0.0847795 3.75917e-21)
(-0.0619926 0.102561 -6.85472e-21)
(-0.0798799 0.107969 3.13958e-21)
(-0.0920964 0.107253 -2.67769e-21)
(-0.0988124 0.103974 7.25187e-21)
(-0.100285 0.100206 -2.86402e-22)
(-0.0967637 0.0973408 -3.9487e-21)
(-0.0878452 0.0966447 -3.22654e-21)
(-0.0740386 0.0997218 4.58939e-21)
(-0.0189236 0.0469924 -3.99998e-21)
(-0.0427267 0.0945904 6.90714e-21)
(-0.059629 0.115429 -7.28167e-23)
(-0.0683455 0.121593 1.0514e-22)
(-0.0694103 0.119988 -2.56167e-21)
(-0.0633827 0.114648 7.19548e-21)
(-0.0506338 0.107916 0)
(-0.0316008 0.101349 1.93919e-21)
(-0.00571881 0.0967765 -1.7766e-21)
(0.0297063 0.09811 5.60935e-21)
(-0.022613 0.047633 -2.1444e-22)
(-0.0470616 0.0971179 -6.56123e-21)
(-0.0579476 0.118995 -3.08879e-21)
(-0.0566832 0.124914 -2.58789e-21)
(-0.0449019 0.122014 -2.59213e-21)
(-0.0236321 0.114538 -2.35658e-21)
(0.00659584 0.104858 0)
(0.0451239 0.0943554 -1.93905e-21)
(0.0917563 0.0847339 -5.60603e-21)
(0.157044 0.0824817 1.54343e-21)
(-0.0264107 0.0459953 3.29456e-23)
(-0.0514471 0.0935242 -2.87047e-21)
(-0.0557321 0.113846 0)
(-0.0426511 0.117989 5.55965e-21)
(-0.0145979 0.113152 -5.00474e-21)
(0.027067 0.10365 0)
(0.0816897 0.0919066 0)
(0.148404 0.0793757 0)
(0.221564 0.0655381 3.95313e-21)
(0.333716 0.060067 6.41081e-21)
(-0.030395 0.0432353 2.68987e-21)
(-0.0547358 0.0853825 -2.51968e-21)
(-0.0498163 0.101362 -4.92581e-21)
(-0.0203254 0.101957 2.29621e-22)
(0.0310621 0.0944418 -4.95035e-21)
(0.102606 0.0831848 -4.81334e-21)
(0.19289 0.0708117 -4.6234e-21)
(0.300616 0.0598241 -4.42841e-21)
(0.407226 0.0449674 -3.95264e-21)
(0.582871 0.0415542 4.26844e-21)
(-0.0343882 0.0400841 5.8927e-21)
(-0.0546426 0.0740608 2.64945e-21)
(-0.0344476 0.0833745 9.82731e-21)
(0.0205054 0.0791317 5.02307e-21)
(0.107192 0.0688839 1.83913e-22)
(0.222184 0.0570622 4.95546e-21)
(0.360738 0.0463164 -4.59638e-21)
(0.517423 0.0400119 4.42782e-21)
(0.664453 0.0295672 -4.15206e-21)
(0.891843 0.0351421 7.78092e-21)
(-0.0376525 0.0366349 -3.63758e-21)
(-0.0474283 0.0602761 0)
(-0.00148639 0.0617111 -4.36321e-21)
(0.0928575 0.0527928 4.48772e-23)
(0.23008 0.0415053 3.82835e-22)
(0.400937 0.0320938 -4.78189e-21)
(0.593802 0.0271382 1.35888e-20)
(0.791175 0.0267731 0)
(0.982689 0.0274413 4.15139e-21)
(1.2008 0.042041 0)
(-0.298754 0.0215869 0)
(-0.325473 0.0215089 2.2689e-22)
(-0.351803 0.0211636 -3.94449e-22)
(-0.377817 0.0206857 1.51273e-22)
(-0.403372 0.0200364 0)
(-0.428228 0.019181 2.95489e-23)
(-0.452114 0.0180923 -2.96953e-23)
(-0.474719 0.0167506 0)
(-0.49571 0.0151454 0)
(-0.514739 0.0132784 3.25756e-23)
(-0.531449 0.0111651 0)
(-0.54547 0.00883036 0)
(-0.556426 0.00630419 0)
(-0.564 0.00363117 0)
(-0.568039 0.000887485 -8.16393e-23)
(-0.568531 -0.00179709 8.20622e-23)
(-0.565145 -0.00426159 0)
(-0.557368 -0.00645955 -1.60568e-23)
(-0.546582 -0.00840753 1.61413e-23)
(-0.53907 -0.00986537 0)
(-0.253304 0.0611893 0)
(-0.276768 0.0611994 -5.83811e-23)
(-0.299689 0.0604221 0)
(-0.322444 0.0592866 -3.30928e-22)
(-0.345061 0.0576877 3.37849e-22)
(-0.367345 0.05552 6.83347e-24)
(-0.389077 0.0526971 -2.33709e-22)
(-0.410008 0.0491514 6.41871e-22)
(-0.429853 0.0448398 -7.95723e-22)
(-0.448306 0.0397483 5.31079e-22)
(-0.465048 0.033899 6.83925e-22)
(-0.479744 0.0273522 -1.33675e-21)
(-0.492029 0.0201956 7.50391e-22)
(-0.501531 0.0125398 4.92964e-22)
(-0.507964 0.00456134 -3.88454e-22)
(-0.511174 -0.00340628 9.52466e-23)
(-0.510783 -0.0108055 8.09339e-23)
(-0.506309 -0.0173947 8.04331e-23)
(-0.49865 -0.0230901 -8.08227e-23)
(-0.492849 -0.0272392 1.07809e-23)
(-0.172699 0.0908499 6.88954e-23)
(-0.189822 0.0913597 5.84841e-23)
(-0.206362 0.0907524 4.01505e-23)
(-0.222847 0.0896433 0)
(-0.239629 0.0878957 -4.9247e-25)
(-0.256589 0.0853481 -1.73252e-24)
(-0.273585 0.0818556 0)
(-0.290465 0.0772955 -9.11498e-23)
(-0.30705 0.0715736 -5.8399e-23)
(-0.323136 0.0646271 1.21209e-21)
(-0.338489 0.0564327 1.90378e-22)
(-0.352861 0.047022 -1.77823e-21)
(-0.365997 0.0364902 -1.18043e-22)
(-0.377605 0.02499 -1.05674e-22)
(-0.38732 0.0127429 -1.19894e-22)
(-0.394609 0.000157831 2.86463e-22)
(-0.399038 -0.0120899 -2.49951e-22)
(-0.400141 -0.023148 -3.11144e-22)
(-0.398087 -0.0324909 -7.40386e-23)
(-0.395694 -0.0389613 5.76683e-25)
(-0.0707112 0.105954 1.88e-21)
(-0.0797505 0.107595 -4.65795e-22)
(-0.0880682 0.107813 -5.5374e-22)
(-0.0962925 0.107348 -9.83936e-22)
(-0.105111 0.106205 -1.591e-23)
(-0.114522 0.104184 1.21538e-23)
(-0.124436 0.101079 -1.30396e-21)
(-0.13478 0.0967316 4.39187e-22)
(-0.145486 0.0910169 9.88404e-22)
(-0.15648 0.0838318 -1.6269e-21)
(-0.167668 0.0750981 -2.15489e-22)
(-0.178935 0.0647753 2.10303e-21)
(-0.190159 0.0528815 1.17063e-22)
(-0.201233 0.0395199 1.29015e-21)
(-0.211985 0.0248911 -9.06083e-22)
(-0.222059 0.00926802 -8.96427e-22)
(-0.230776 -0.00667321 7.71302e-22)
(-0.237479 -0.0218628 0)
(-0.241871 -0.0348951 1.64217e-22)
(-0.244089 -0.0436527 1.6286e-23)
(0.0449202 0.105459 -5.3908e-21)
(0.0446558 0.108943 1.4343e-21)
(0.0438485 0.110298 -1.55346e-21)
(0.0438483 0.110764 0)
(0.043487 0.110649 9.81983e-24)
(0.0423484 0.1097 -7.6962e-22)
(0.040468 0.107616 -7.07049e-22)
(0.0379194 0.104217 -6.32352e-22)
(0.034711 0.0993855 2.04829e-21)
(0.0308155 0.0930129 1.79804e-22)
(0.0262049 0.0850026 0)
(0.0208627 0.0752865 -2.37232e-22)
(0.0147783 0.0638347 0)
(0.00791547 0.050671 -2.65167e-22)
(0.000106541 0.0359087 0)
(-0.00846873 0.0197756 0)
(-0.0174179 0.00269745 2.19984e-22)
(-0.0264112 -0.0147852 -3.14101e-22)
(-0.0350821 -0.0310251 2.86221e-22)
(-0.0423361 -0.0428392 -8.8797e-23)
(0.181294 0.0922435 0)
(0.188207 0.0979804 1.17286e-22)
(0.192186 0.100375 2.4584e-21)
(0.197967 0.101676 -2.3894e-21)
(0.204328 0.102623 3.06069e-23)
(0.210129 0.102861 0)
(0.215239 0.101953 -1.28824e-21)
(0.219789 0.0997113 3.14077e-21)
(0.223779 0.0960518 -2.08191e-21)
(0.227101 0.0908717 -1.74921e-22)
(0.229637 0.084065 -2.10877e-22)
(0.23128 0.0755607 -2.41513e-22)
(0.231914 0.0653392 0)
(0.231393 0.0534146 1.97685e-21)
(0.229521 0.0398721 -4.754e-21)
(0.226196 0.0249791 2.21628e-21)
(0.221286 0.00902882 -2.44158e-22)
(0.215009 -0.00768611 -1.9906e-22)
(0.207032 -0.0244317 9.28303e-23)
(0.198643 -0.0390885 -9.35039e-23)
(0.361146 0.0729146 -6.89536e-21)
(0.370626 0.0805612 0)
(0.374954 0.0832974 1.15539e-22)
(0.382201 0.084942 -1.55794e-22)
(0.39151 0.0866403 -7.91639e-23)
(0.400932 0.0877253 -6.96835e-24)
(0.410074 0.0876279 3.49244e-23)
(0.419143 0.0862368 -1.62378e-21)
(0.428137 0.0835276 1.96679e-21)
(0.43686 0.0793923 3.30497e-21)
(0.4451 0.0737133 -2.75827e-21)
(0.45269 0.0664137 4.64638e-22)
(0.459429 0.0574964 -2.12317e-21)
(0.465113 0.0469895 1.99797e-22)
(0.469435 0.035032 2.73411e-21)
(0.472336 0.02177 2.59481e-22)
(0.47333 0.00768494 -3.95699e-22)
(0.472653 -0.0070619 4.06383e-22)
(0.469059 -0.0212177 7.81883e-22)
(0.463952 -0.0365265 4.83526e-23)
(0.604797 0.0566624 0)
(0.611367 0.0645418 4.30181e-21)
(0.611996 0.0659333 -4.39885e-21)
(0.616619 0.067001 8.71024e-23)
(0.624694 0.0687706 1.16751e-22)
(0.633739 0.0698851 6.96226e-24)
(0.643208 0.0697861 -4.90865e-23)
(0.653349 0.0685727 0)
(0.664096 0.0662572 -1.17714e-22)
(0.675167 0.062676 -1.56975e-22)
(0.686261 0.0576956 -1.73178e-22)
(0.697186 0.0512231 -4.27125e-22)
(0.707636 0.0432958 0)
(0.71742 0.0339026 0)
(0.726019 0.0233641 -2.63491e-22)
(0.733608 0.0116927 -2.38141e-21)
(0.739206 -0.000300696 1.65274e-21)
(0.743711 -0.0132435 -1.75139e-22)
(0.744627 -0.0241977 -4.11384e-22)
(0.74476 -0.0383446 1.18516e-22)
(0.90316 0.051787 -8.08908e-21)
(0.90438 0.0566978 0)
(0.901761 0.0550507 0)
(0.903815 0.0550648 3.12697e-21)
(0.909345 0.0559804 -1.31545e-21)
(0.916021 0.0558305 -2.39147e-21)
(0.923566 0.0545383 5.57862e-22)
(0.932227 0.0524553 0)
(0.941827 0.0495715 0)
(0.952086 0.0456811 0)
(0.962694 0.0406894 9.91463e-23)
(0.973543 0.0344777 2.87799e-22)
(0.984213 0.0271449 3.54299e-21)
(0.994729 0.018563 -3.41234e-21)
(1.00434 0.0092152 1.83123e-21)
(1.01354 -0.00127955 -1.5859e-21)
(1.02069 -0.0114506 0)
(1.02709 -0.0230172 9.24264e-23)
(1.02969 -0.0313596 1.14122e-22)
(1.03294 -0.0433019 0)
(1.21739 0.0521438 1.00982e-22)
(1.22216 0.0488165 5.2384e-21)
(1.22377 0.0459101 -5.18398e-21)
(1.22701 0.0465715 0)
(1.23048 0.0473378 -2.56923e-21)
(1.23378 0.0469257 3.95427e-21)
(1.2376 0.0456652 -1.3969e-21)
(1.24232 0.0436613 0)
(1.24785 0.0407663 1.1536e-21)
(1.25407 0.0367747 -2.87815e-21)
(1.2608 0.0317118 1.78963e-21)
(1.268 0.0254376 -8.54092e-23)
(1.27529 0.0182163 0)
(1.28272 0.00976783 -3.24805e-21)
(1.28956 0.000875389 4.6816e-21)
(1.29629 -0.00928384 -1.55251e-21)
(1.30143 -0.0185993 -1.2598e-21)
(1.30609 -0.0294959 8.53649e-22)
(1.30828 -0.036346 4.65014e-22)
(1.31031 -0.0464829 0)
(1.56182 0.0553724 0)
(1.54468 0.0505168 0)
(1.53374 0.0476654 0)
(1.52564 0.0459296 0)
(1.51926 0.0441321 0)
(1.51466 0.042022 0)
(1.51196 0.0395946 0)
(1.51099 0.0366637 0)
(1.51144 0.033147 0)
(1.51301 0.0288399 0)
(1.51546 0.0238435 0)
(1.51852 0.0178816 0)
(1.52196 0.0113707 0)
(1.52549 0.00378245 0)
(1.52889 -0.00386347 0)
(1.53178 -0.0128105 0)
(1.53419 -0.0205555 0)
(1.53528 -0.0300594 0)
(1.53606 -0.0356287 0)
(1.53438 -0.0447807 0)
(1.70904 0.0612203 0)
(1.70602 0.059585 0)
(1.70456 0.057467 0)
(1.70326 0.054568 0)
(1.70191 0.0512214 0)
(1.70088 0.0476093 0)
(1.70055 0.0437713 0)
(1.70084 0.0395234 0)
(1.70177 0.0348648 0)
(1.70305 0.0295609 0)
(1.70474 0.023808 0)
(1.70642 0.0172493 0)
(1.70834 0.0104306 0)
(1.70967 0.00264346 0)
(1.7111 -0.00476108 0)
(1.71128 -0.0133203 0)
(1.71183 -0.0203417 0)
(1.70993 -0.029111 0)
(1.70952 -0.0339642 0)
(1.70473 -0.0421644 0)
(1.80619 0.0621174 0)
(1.80804 0.0594661 0)
(1.81001 0.056856 0)
(1.8121 0.0536047 0)
(1.81439 0.0499649 0)
(1.81685 0.0460902 0)
(1.81962 0.0420393 0)
(1.82246 0.0376033 0)
(1.82547 0.0328337 0)
(1.82825 0.0274592 0)
(1.8311 0.0217655 0)
(1.83337 0.0153314 0)
(1.83565 0.00882879 0)
(1.83688 0.00143174 0)
(1.83834 -0.00534624 0)
(1.83786 -0.0132272 0)
(1.83813 -0.0194113 0)
(1.83534 -0.0273152 0)
(1.83482 -0.0314198 0)
(1.82926 -0.0387398 0)
(1.87627 0.0610164 0)
(1.88071 0.0569929 0)
(1.88426 0.0534553 0)
(1.88774 0.0498003 0)
(1.8916 0.0459918 0)
(1.8957 0.0420114 0)
(1.90005 0.037923 0)
(1.90429 0.033517 0)
(1.90857 0.0288916 0)
(1.91239 0.0237452 0)
(1.9162 0.0184237 0)
(1.91917 0.0124434 0)
(1.92215 0.00656723 0)
(1.92382 -8.26958e-05 0)
(1.92572 -0.00608124 0)
(1.92551 -0.0131546 0)
(1.92616 -0.0184745 0)
(1.92373 -0.0254704 0)
(1.92356 -0.0288871 0)
(1.91868 -0.0354436 0)
(1.93356 0.0580062 0)
(1.93942 0.0531815 0)
(1.94407 0.04902 0)
(1.94832 0.0451067 0)
(1.95285 0.0412372 0)
(1.95758 0.0372438 0)
(1.96254 0.0331863 0)
(1.96729 0.0288708 0)
(1.97203 0.024442 0)
(1.97625 0.0195889 0)
(1.98041 0.0146815 0)
(1.98371 0.00921318 0)
(1.98702 0.00395952 0)
(1.989 -0.00201067 0)
(1.9912 -0.00726229 0)
(1.99144 -0.0135034 0)
(1.99246 -0.0180346 0)
(1.99073 -0.0241662 0)
(1.99089 -0.0270181 0)
(1.98715 -0.0328558 0)
(1.98858 0.0535586 0)
(1.99502 0.0485038 0)
(2.00026 0.0440823 0)
(2.00485 0.040039 0)
(2.00951 0.0361636 0)
(2.01429 0.0322209 0)
(2.01926 0.0282571 0)
(2.02399 0.024088 0)
(2.02869 0.0198878 0)
(2.03284 0.0153503 0)
(2.03694 0.0108503 0)
(2.0402 0.00587813 0)
(2.04348 0.00118397 0)
(2.04552 -0.00414163 0)
(2.04777 -0.00871167 0)
(2.04829 -0.0141786 0)
(2.04949 -0.0180438 0)
(2.04834 -0.0234004 0)
(2.0487 -0.0258017 0)
(2.04592 -0.0309589 0)
(2.04651 0.0485328 0)
(2.053 0.0435925 0)
(2.05836 0.0391407 0)
(2.06291 0.0350571 0)
(2.06738 0.0312067 0)
(2.07186 0.0273508 0)
(2.07649 0.0235221 0)
(2.08088 0.0195372 0)
(2.08523 0.0155804 0)
(2.08903 0.0113594 0)
(2.09278 0.00724063 0)
(2.09574 0.00273338 0)
(2.09874 -0.00145743 0)
(2.10061 -0.00618844 0)
(2.10271 -0.0101724 0)
(2.10327 -0.0149627 0)
(2.10444 -0.0182812 0)
(2.10359 -0.0229598 0)
(2.10401 -0.0249976 0)
(2.10182 -0.0295303 0)
(2.10837 0.043515 0)
(2.11456 0.0388168 0)
(2.11974 0.0344584 0)
(2.12407 0.030416 0)
(2.1282 0.0266338 0)
(2.13222 0.0228979 0)
(2.13636 0.0192336 0)
(2.14023 0.0154565 0)
(2.14407 0.0117489 0)
(2.14736 0.00783591 0)
(2.15062 0.00406942 0)
(2.15312 -1.35922e-05 0)
(2.1557 -0.00375746 0)
(2.15721 -0.00796205 0)
(2.15902 -0.0114529 0)
(2.15939 -0.0156601 0)
(2.1604 -0.0185269 0)
(2.15955 -0.0226152 0)
(2.15994 -0.0243564 0)
(2.15794 -0.0283259 0)
(2.17311 0.0387038 0)
(2.17883 0.0342863 0)
(2.18369 0.0301079 0)
(2.18771 0.0261906 0)
(2.19145 0.0225339 0)
(2.19497 0.0189559 0)
(2.19857 0.0154825 0)
(2.20187 0.0119326 0)
(2.20515 0.00847977 0)
(2.20786 0.00486823 0)
(2.21059 0.00143056 0)
(2.21254 -0.00226499 0)
(2.21464 -0.00561118 0)
(2.21569 -0.00935114 0)
(2.21711 -0.0124206 0)
(2.21713 -0.0161195 0)
(2.21791 -0.0186063 0)
(2.21683 -0.022178 0)
(2.21712 -0.023674 0)
(2.21498 -0.0271379 0)
(2.239 0.0341379 0)
(2.24421 0.0300354 0)
(2.2487 0.0261089 0)
(2.25237 0.0223924 0)
(2.25572 0.0189186 0)
(2.25876 0.0155374 0)
(2.26183 0.0122808 0)
(2.26455 0.00897646 0)
(2.26727 0.00578705 0)
(2.26939 0.00247419 0)
(2.27158 -0.000649609 0)
(2.27295 -0.00398035 0)
(2.27456 -0.00696827 0)
(2.27508 -0.0102909 0)
(2.27611 -0.0129908 0)
(2.27567 -0.0162391 0)
(2.27618 -0.0184001 0)
(2.27471 -0.0215151 0)
(2.27486 -0.0228043 0)
(2.27236 -0.0258129 0)
(2.30416 0.029846 0)
(2.30887 0.0260961 0)
(2.31298 0.0224738 0)
(2.31631 0.0190148 0)
(2.31928 0.0157725 0)
(2.32186 0.0126244 0)
(2.32445 0.00960976 0)
(2.32662 0.00656972 0)
(2.32881 0.00365385 0)
(2.33036 0.000642168 0)
(2.33203 -0.00217448 0)
(2.33283 -0.00515855 0)
(2.33396 -0.0078142 0)
(2.33393 -0.0107524 0)
(2.33456 -0.0131199 0)
(2.3336 -0.015962 0)
(2.33382 -0.0178372 0)
(2.33186 -0.0205424 0)
(2.33186 -0.0216526 0)
(2.32885 -0.0242484 0)
(2.36666 0.0258473 0)
(2.37092 0.0224774 0)
(2.37467 0.0191931 0)
(2.37766 0.0160326 0)
(2.38029 0.0130614 0)
(2.38246 0.0101798 0)
(2.38461 0.00743278 0)
(2.38627 0.00467563 0)
(2.38798 0.00204535 0)
(2.38899 -0.000657472 0)
(2.39018 -0.00316905 0)
(2.39044 -0.00581712 0)
(2.39112 -0.00815682 0)
(2.39054 -0.0107339 0)
(2.39079 -0.0127956 0)
(2.38929 -0.0152644 0)
(2.38923 -0.0168824 0)
(2.38672 -0.019214 0)
(2.38657 -0.020165 0)
(2.38298 -0.0223843 0)
(2.42459 0.0221253 0)
(2.42843 0.0191528 0)
(2.43184 0.0162316 0)
(2.43452 0.0134021 0)
(2.43685 0.0107373 0)
(2.43865 0.00815371 0)
(2.44041 0.0057004 0)
(2.44162 0.00324563 0)
(2.4429 0.000912756 0)
(2.44342 -0.00147147 0)
(2.44418 -0.00367525 0)
(2.44393 -0.00599158 0)
(2.44421 -0.00802454 0)
(2.44311 -0.0102567 0)
(2.44301 -0.0120304 0)
(2.44099 -0.0141507 0)
(2.44067 -0.015531 0)
(2.43763 -0.0175181 0)
(2.43733 -0.018324 0)
(2.43315 -0.0201987 0)
(2.47607 0.018652 0)
(2.47952 0.0160895 0)
(2.48261 0.0135525 0)
(2.48501 0.0110823 0)
(2.48707 0.00875378 0)
(2.48854 0.00649645 0)
(2.48996 0.00436057 0)
(2.49077 0.00222642 0)
(2.49167 0.000207666 0)
(2.49177 -0.00185126 0)
(2.49216 -0.00374498 0)
(2.49147 -0.00573194 0)
(2.4914 -0.00746407 0)
(2.48985 -0.00936375 0)
(2.48945 -0.0108622 0)
(2.48697 -0.0126537 0)
(2.48642 -0.0138111 0)
(2.4829 -0.0154786 0)
(2.48248 -0.0161497 0)
(2.47778 -0.0177096 0)
(2.51933 0.0154251 0)
(2.5224 0.0132787 0)
(2.5252 0.0111395 0)
(2.52733 0.00904759 0)
(2.52914 0.00707584 0)
(2.53034 0.00516456 0)
(2.53147 0.0033618 0)
(2.53196 0.00156095 0)
(2.53256 -0.000132509 0)
(2.53231 -0.00186368 0)
(2.5324 -0.00344753 0)
(2.53136 -0.00510888 0)
(2.53101 -0.00654666 0)
(2.52912 -0.00812569 0)
(2.52848 -0.00936053 0)
(2.52566 -0.0108415 0)
(2.52493 -0.0117886 0)
(2.52108 -0.0131596 0)
(2.52056 -0.0137051 0)
(2.51549 -0.0149787 0)
(2.55289 0.0124466 0)
(2.55563 0.0107111 0)
(2.55817 0.00897192 0)
(2.56009 0.00726548 0)
(2.56173 0.00565908 0)
(2.56272 0.00410156 0)
(2.56365 0.00263696 0)
(2.56391 0.00117299 0)
(2.5643 -0.000199107 0)
(2.56383 -0.00160394 0)
(2.56372 -0.00288129 0)
(2.56246 -0.00422387 0)
(2.56194 -0.00537675 0)
(2.55984 -0.00664791 0)
(2.55906 -0.00763203 0)
(2.55606 -0.00881996 0)
(2.55523 -0.00956992 0)
(2.55121 -0.0106657 0)
(2.55064 -0.0110947 0)
(2.54541 -0.0121082 0)
(2.57622 0.00964695 0)
(2.57873 0.00830975 0)
(2.58111 0.00696569 0)
(2.58293 0.00564537 0)
(2.58448 0.00440566 0)
(2.58538 0.00320311 0)
(2.58622 0.00207511 0)
(2.58638 0.000945407 0)
(2.58667 -0.000110429 0)
(2.58611 -0.00119398 0)
(2.58593 -0.00217368 0)
(2.58459 -0.00320707 0)
(2.58402 -0.00408712 0)
(2.58188 -0.00506323 0)
(2.58106 -0.0058106 0)
(2.57804 -0.00672106 0)
(2.57719 -0.00728725 0)
(2.57319 -0.00812576 0)
(2.57261 -0.00844729 0)
(2.56745 -0.00922155 0)
(2.5904 0.00689619 0)
(2.59281 0.00594082 0)
(2.59514 0.00498403 0)
(2.59694 0.0040483 0)
(2.5985 0.00317433 0)
(2.59942 0.00232679 0)
(2.60027 0.00153308 0)
(2.60043 0.00073509 0)
(2.60074 -6.89952e-06 0)
(2.6002 -0.000773918 0)
(2.60004 -0.00146372 0)
(2.59876 -0.00219518 0)
(2.59821 -0.00281272 0)
(2.59615 -0.00350333 0)
(2.59537 -0.0040258 0)
(2.59246 -0.00466985 0)
(2.59165 -0.00506365 0)
(2.5878 -0.00565679 0)
(2.58726 -0.00587886 0)
(2.5823 -0.00642658 0)
(2.59785 0.00422408 0)
(2.60022 0.00361587 0)
(2.60256 0.00302099 0)
(2.6044 0.00245064 0)
(2.60602 0.00192674 0)
(2.60699 0.00142114 0)
(2.60788 0.000950187 0)
(2.60811 0.000474962 0)
(2.60847 3.40366e-05 0)
(2.608 -0.000423003 0)
(2.6079 -0.00082998 0)
(2.60671 -0.00126571 0)
(2.60624 -0.00162927 0)
(2.60429 -0.00204155 0)
(2.60358 -0.00234811 0)
(2.60082 -0.00273331 0)
(2.60008 -0.00296307 0)
(2.59641 -0.0033183 0)
(2.5959 -0.00344675 0)
(2.59119 -0.00377449 0)
(2.60089 0.00161355 0)
(2.60326 0.00135927 0)
(2.60562 0.0011229 0)
(2.60751 0.000905431 0)
(2.60917 0.000712033 0)
(2.61018 0.000529459 0)
(2.61111 0.000362373 0)
(2.61138 0.000195853 0)
(2.61178 4.1625e-05 0)
(2.61137 -0.00011535 0)
(2.61132 -0.000253011 0)
(2.61019 -0.000400932 0)
(2.60977 -0.000522723 0)
(2.60789 -0.000662097 0)
(2.60724 -0.000763915 0)
(2.60457 -0.000893886 0)
(2.60387 -0.000969534 0)
(2.60033 -0.00108929 0)
(2.59985 -0.00113115 0)
(2.59528 -0.00124132 0)
(1.86326 0.154901 1.90759e-21)
(1.87764 0.142706 0)
(1.88332 0.130416 -3.17904e-22)
(1.88242 0.118264 -9.53029e-21)
(1.87227 0.10662 1.46485e-20)
(1.85927 0.096464 0)
(1.83447 0.0860726 1.09533e-20)
(1.79979 0.0807101 0)
(1.76969 0.0679098 8.69756e-21)
(1.58717 0.0575966 -1.21417e-22)
(1.90585 0.141669 -2.20764e-21)
(1.91863 0.131677 4.20099e-22)
(1.92325 0.121236 -4.20949e-22)
(1.92126 0.112279 -1.12761e-21)
(1.91329 0.102178 -8.9096e-21)
(1.89573 0.095817 -5.14062e-22)
(1.88801 0.0863902 0)
(1.83502 0.0827969 -1.13596e-20)
(1.85984 0.0770472 0)
(1.71341 0.0642557 -7.74254e-21)
(1.95467 0.128381 4.55531e-21)
(1.96393 0.120247 0)
(1.96975 0.110764 -3.92191e-22)
(1.96214 0.103897 -6.70717e-22)
(1.96126 0.0950325 9.43528e-21)
(1.93145 0.0901734 0)
(1.94109 0.0836 1.50774e-20)
(1.87335 0.0780429 1.17228e-20)
(1.90822 0.0769105 0)
(1.80438 0.0669759 7.66318e-21)
(2.00758 0.116465 -2.06721e-21)
(2.01224 0.109528 8.31487e-21)
(2.02164 0.101298 0)
(2.00683 0.0952114 1.21418e-20)
(2.0135 0.0882395 6.3581e-22)
(1.97403 0.082592 -1.18548e-21)
(1.98954 0.0787758 -1.44366e-20)
(1.92293 0.0716841 -4.71688e-22)
(1.94485 0.0712268 -1.29883e-20)
(1.87083 0.0663119 0)
(2.06263 0.105777 0)
(2.06333 0.0994683 -8.11535e-21)
(2.07584 0.0929099 -8.9635e-21)
(2.0567 0.0868107 1.25244e-21)
(2.06641 0.0818406 -7.97054e-22)
(2.02565 0.0754231 -6.04225e-22)
(2.03657 0.0728925 -1.77802e-20)
(1.97993 0.0667725 -9.77611e-22)
(1.9876 0.0649399 -9.0933e-22)
(1.92676 0.0633998 1.18471e-20)
(2.11819 0.0960071 2.65423e-21)
(2.117 0.090084 5.46765e-22)
(2.13019 0.085009 -1.41312e-21)
(2.11105 0.0789964 4.82405e-22)
(2.11925 0.0752373 -1.31524e-20)
(2.08314 0.0693117 0)
(2.08698 0.0666724 1.94373e-20)
(2.03937 0.0626342 -5.69966e-22)
(2.03935 0.0592236 2.96283e-20)
(1.98159 0.0589481 -2.48119e-20)
(2.17326 0.0868891 -2.66729e-21)
(2.17215 0.081472 -4.90687e-21)
(2.18408 0.0772925 8.4356e-21)
(2.16759 0.0718964 -1.46942e-20)
(2.17292 0.0684484 -1.61846e-21)
(2.14242 0.0638051 -1.22273e-20)
(2.14199 0.060483 6.13182e-22)
(2.09928 0.057984 -1.14672e-21)
(2.0972 0.0536915 -1.48302e-20)
(2.03971 0.0536717 1.29538e-20)
(2.22723 0.0782717 0)
(2.22706 0.0735711 1.05997e-20)
(2.23745 0.0697932 -1.12384e-21)
(2.22395 0.0653444 8.02192e-21)
(2.22763 0.0617945 -6.57836e-22)
(2.20116 0.0583574 2.4379e-20)
(2.19991 0.0545258 -1.07429e-20)
(2.15971 0.0527433 0)
(2.15832 0.0483505 0)
(2.10198 0.0482758 0)
(2.27942 0.0701216 0)
(2.28016 0.066201 -9.71671e-21)
(2.28974 0.0626379 -6.13142e-22)
(2.27854 0.0590934 8.17039e-21)
(2.28226 0.0554928 1.45923e-20)
(2.25851 0.0528389 -1.36779e-20)
(2.25846 0.0489549 1.29283e-20)
(2.22062 0.0474451 -6.8865e-22)
(2.22074 0.0433692 0)
(2.16725 0.043111 8.23395e-21)
(2.32894 0.0624105 3.49994e-22)
(2.33031 0.0591806 5.54053e-21)
(2.33988 0.0558694 8.53314e-21)
(2.33042 0.0530062 -4.58581e-22)
(2.3352 0.0495821 1.02052e-21)
(2.31388 0.0473771 -1.49038e-20)
(2.31568 0.0437876 1.41566e-20)
(2.28109 0.0423822 -7.2237e-22)
(2.28268 0.0387053 0)
(2.23368 0.0382174 -1.68657e-20)
(2.3749 0.0550765 0)
(2.37676 0.0523965 5.50568e-21)
(2.38667 0.0494389 2.2793e-22)
(2.37887 0.0470531 0)
(2.38493 0.0439919 0)
(2.36643 0.0420678 1.32251e-20)
(2.36997 0.0389088 -1.174e-20)
(2.33963 0.0375482 -6.77559e-22)
(2.34243 0.0342511 3.68828e-22)
(2.29934 0.0335736 8.92313e-21)
(2.41665 0.0480536 0)
(2.41905 0.0458074 -1.04891e-20)
(2.42922 0.0432743 -1.13119e-20)
(2.42324 0.0412427 1.69668e-21)
(2.43034 0.0386268 -1.08499e-21)
(2.41513 0.0369152 -8.84832e-22)
(2.42001 0.0342007 1.66427e-21)
(2.39468 0.0328868 1.05732e-20)
(2.3984 0.0299709 1.00722e-21)
(2.36229 0.0291871 -3.0754e-22)
(2.45375 0.0413193 0)
(2.45677 0.0394333 5.65162e-21)
(2.4669 0.0373418 -6.20579e-22)
(2.46292 0.0356019 6.15454e-22)
(2.47058 0.0334343 0)
(2.45899 0.0319136 0)
(2.46469 0.0296219 0)
(2.44484 0.0283916 -1.20026e-20)
(2.44914 0.0258685 1.1122e-20)
(2.4206 0.0250565 0)
(2.4857 0.0349138 0)
(2.48938 0.0333434 3.61151e-21)
(2.49909 0.0316675 4.63831e-21)
(2.4972 0.0301877 5.99283e-21)
(2.50493 0.0284316 -1.13662e-21)
(2.49706 0.0271004 6.97105e-21)
(2.50308 0.0252012 -6.1971e-21)
(2.48881 0.0240898 0)
(2.49334 0.0219538 6.91215e-22)
(2.47244 0.0211658 -1.04543e-20)
(2.51167 0.028896 -8.05383e-22)
(2.51605 0.027611 -2.92983e-21)
(2.52505 0.0263021 -5.99618e-21)
(2.52522 0.0250677 -4.217e-21)
(2.53262 0.0236729 0)
(2.52835 0.0225368 -8.86177e-21)
(2.53424 0.0209934 8.89874e-21)
(2.52531 0.0200211 -8.409e-22)
(2.52975 0.0182517 -5.50773e-21)
(2.51607 0.0175197 1.5206e-20)
(2.53084 0.0232793 8.09517e-22)
(2.53595 0.0222477 -2.28087e-21)
(2.54415 0.0212463 2.03338e-21)
(2.54623 0.0202547 -5.00019e-21)
(2.55307 0.0191719 0)
(2.55201 0.0182423 0)
(2.55751 0.0170164 8.75205e-22)
(2.55324 0.0162008 -8.23438e-21)
(2.55739 0.0147737 -5.00732e-21)
(2.54996 0.0141307 -5.12449e-21)
(2.54329 0.0179018 0)
(2.54911 0.0171421 3.74009e-21)
(2.55662 0.0164087 -1.36477e-21)
(2.56028 0.0156667 4.46046e-21)
(2.56653 0.0148566 1.19095e-21)
(2.56801 0.0141479 -9.88781e-22)
(2.57302 0.0132056 1.85392e-21)
(2.57238 0.0125668 5.70141e-21)
(2.57616 0.0114575 0)
(2.57351 0.0109395 0)
(2.55074 0.0126304 0)
(2.55707 0.0121672 1.53019e-21)
(2.564 0.0116928 -2.78892e-21)
(2.56873 0.0112095 0)
(2.57446 0.0106521 -2.31668e-21)
(2.57762 0.0101678 -9.99867e-22)
(2.58219 0.00948721 -2.78023e-21)
(2.5839 0.00902599 -8.01794e-22)
(2.5874 0.00821131 4.20734e-22)
(2.58781 0.00782095 3.46133e-22)
(2.5553 0.00748919 0)
(2.5618 0.00730201 -1.53753e-21)
(2.56826 0.00709419 -1.3851e-21)
(2.5735 0.00687952 1.90473e-21)
(2.57883 0.00658749 1.1078e-21)
(2.58284 0.00633214 1.05099e-21)
(2.58709 0.00592156 4.64997e-21)
(2.59 0.00563363 -3.36782e-21)
(2.59331 0.00510503 7.80063e-22)
(2.5953 0.00482142 0)
(2.55778 0.00233546 0)
(2.56424 0.00239446 7.50945e-22)
(2.57041 0.00244034 -7.16659e-22)
(2.57577 0.00247262 6.7626e-22)
(2.58086 0.00245483 0)
(2.58515 0.00242781 -1.05621e-21)
(2.58923 0.00231959 9.10779e-22)
(2.59257 0.00222646 8.0396e-22)
(2.59577 0.00202576 0)
(2.59836 0.00187782 0)
(1.21426 0.270525 0)
(1.1609 0.295678 -5.87434e-20)
(1.11852 0.32903 0)
(1.08402 0.371775 -1.95018e-19)
(1.05364 0.423329 7.4141e-20)
(1.0253 0.485663 2.4477e-21)
(0.996636 0.559946 6.36307e-20)
(0.949494 0.63536 -8.29932e-21)
(0.816712 0.651273 0)
(0.461761 0.404811 6.31012e-20)
(1.30124 0.273145 1.07095e-19)
(1.24994 0.305277 5.87417e-20)
(1.2094 0.337491 -5.58224e-20)
(1.17591 0.378856 6.56423e-20)
(1.14743 0.430126 -5.57989e-20)
(1.12308 0.4922 8.30765e-21)
(1.10004 0.565558 -6.59289e-20)
(1.05708 0.63817 -1.29838e-19)
(0.916844 0.648398 -3.44883e-20)
(0.51762 0.395065 -9.22329e-20)
(1.38348 0.271464 -4.74778e-20)
(1.33741 0.305924 4.91737e-20)
(1.29941 0.337575 5.58202e-20)
(1.26658 0.378044 5.71773e-20)
(1.23953 0.428665 5.82741e-20)
(1.21883 0.489598 5.8776e-20)
(1.20079 0.560544 9.8212e-21)
(1.16046 0.627912 5.55591e-20)
(1.01014 0.630142 2.02081e-20)
(0.565291 0.37351 -2.15717e-20)
(1.46386 0.267173 9.48271e-20)
(1.42178 0.30182 -4.91713e-20)
(1.38581 0.33241 0)
(1.35378 0.371313 0)
(1.32823 0.420121 0)
(1.31078 0.478561 4.32871e-20)
(1.29662 0.545427 -3.65944e-20)
(1.25644 0.60505 0)
(1.09242 0.596994 1.33615e-20)
(0.600748 0.340828 -2.66344e-20)
(1.54015 0.25989 -1.76273e-20)
(1.50061 0.293345 6.41111e-20)
(1.46625 0.322572 0)
(1.43539 0.359413 0)
(1.41158 0.405373 1.80829e-20)
(1.39696 0.460024 1.68374e-20)
(1.38519 0.521235 2.39567e-20)