/*--------------------------------*- C++ -*----------------------------------*\
| =========                 |                                                 |
| \\      /  F ield         | OpenFOAM: The Open Source CFD Toolbox           |
|  \\    /   O peration     | Version:  4.1                                   |
|   \\  /    A nd           | Web:      www.OpenFOAM.org                      |
|    \\/     M anipulation  |                                                 |
\*---------------------------------------------------------------------------*/
FoamFile
{
    version     2.0;
    format      ascii;
    class       volScalarField;
    location    "11";
    object      p;
}
// * * * * * * * * * * * * * * * * * * * * * * * * * * * * * * * * * * * * * //

dimensions      [0 2 -2 0 0 0 0];

internalField   nonuniform List<scalar> 
2000
(
0.0891188
0.0978118
0.10662
0.114966
0.121957
0.12734
0.131455
0.133407
0.135262
0.129936
0.0725517
0.084641
0.0956524
0.105747
0.114371
0.121425
0.12711
0.131334
0.134881
0.135009
0.0516777
0.06788
0.0813084
0.0934157
0.104308
0.113959
0.122463
0.129868
0.136458
0.141767
0.0264273
0.0473399
0.0634459
0.0782698
0.0926614
0.106249
0.118728
0.12994
0.140241
0.148604
-0.00274909
0.0233333
0.0425988
0.0615464
0.081158
0.10007
0.117374
0.132857
0.14656
0.158039
-0.0343475
-0.00303817
0.0204782
0.0456056
0.072176
0.0974105
0.119984
0.139715
0.15679
0.171242
-0.0657535
-0.0296932
8.887e-05
0.0335883
0.0682882
0.100193
0.127962
0.151734
0.171967
0.189313
-0.0932478
-0.0533493
-0.0148485
0.028677
0.0718053
0.110066
0.142586
0.169977
0.193158
0.213239
-0.112683
-0.0696729
-0.0206896
0.0334956
0.0845502
0.128392
0.164955
0.195409
0.221139
0.243446
-0.120234
-0.0742829
-0.0142269
0.0499853
0.107829
0.156192
0.195938
0.228783
0.256481
0.280231
0.152391
0.147314
0.144458
0.141579
0.138227
0.134459
0.130321
0.125822
0.120879
0.11529
0.150285
0.14563
0.142987
0.140245
0.137028
0.13341
0.12945
0.125195
0.1206
0.115196
0.146425
0.142599
0.140365
0.137947
0.135061
0.131803
0.128247
0.124491
0.120588
0.115738
0.141452
0.138722
0.13713
0.135289
0.133
0.130378
0.127514
0.124509
0.121592
0.118153
0.135991
0.134479
0.133776
0.132812
0.131423
0.12973
0.127848
0.125834
0.124133
0.122679
0.130439
0.130159
0.130593
0.130805
0.130594
0.130045
0.129301
0.128469
0.128124
0.129266
0.12482
0.125783
0.12756
0.129201
0.130374
0.131074
0.13149
0.13176
0.132151
0.137472
0.11871
0.121052
0.124328
0.127589
0.130253
0.132212
0.133708
0.134982
0.135137
0.144543
0.111332
0.115347
0.120278
0.125229
0.129408
0.13253
0.13491
0.136915
0.137081
0.146975
0.1018
0.107839
0.114621
0.121305
0.12687
0.131065
0.134219
0.136085
0.137131
0.140953
0.109003
0.102365
0.0952173
0.0875947
0.0795734
0.0712448
0.0627251
0.0541537
0.0456895
0.0375063
0.0297864
0.022712
0.0164503
0.0111352
0.00686364
0.00372809
0.00182664
0.00117574
0.00120101
0.000575743
0.108347
0.101731
0.0946038
0.0869409
0.0788433
0.0704068
0.0617491
0.0530136
0.0443647
0.0359838
0.0280638
0.0207999
0.0143771
0.00895112
0.00463833
0.00153677
-0.000256869
-0.000794667
-0.000471518
-0.00013366
0.107846
0.101274
0.0942039
0.0864653
0.0782194
0.0695771
0.0606571
0.0516071
0.0425995
0.0338277
0.0255011
0.0178382
0.0110552
0.00534815
0.000880084
-0.00222156
-0.00386753
-0.00413588
-0.00327371
-0.00136997
0.108357
0.102032
0.095088
0.0872642
0.0788263
0.0699186
0.0606603
0.0511996
0.0417149
0.0324108
0.0235129
0.0152628
0.00791271
0.0017087
-0.00312347
-0.0063968
-0.0079869
-0.00791914
-0.00635481
-0.00289164
0.111215
0.1045
0.0978277
0.0900154
0.0813914
0.0722215
0.0626351
0.0527655
0.0427877
0.0329134
0.0233799
0.0144456
0.00640943
-0.000460843
-0.00587465
-0.00956518
-0.0113282
-0.011089
-0.0089964
-0.00445034
0.11578
0.108247
0.102047
0.0945296
0.0858077
0.0764298
0.0666094
0.0564383
0.0460638
0.0357018
0.0256041
0.0160452
0.00732221
-0.000248601
-0.00634111
-0.0106327
-0.0128298
-0.0127229
-0.0102805
-0.00520438
0.120889
0.112125
0.106768
0.0999717
0.0913113
0.0818252
0.0719232
0.0616197
0.0510047
0.0403038
0.0297872
0.0197396
0.0104667
0.00230178
-0.00441059
-0.0093151
-0.0120825
-0.0123945
-0.0100208
-0.00489303
0.125387
0.115185
0.111038
0.105262
0.0968086
0.0873936
0.0776329
0.0674049
0.0567393
0.0458893
0.0351437
0.0247898
0.0151324
0.00651906
-0.000699596
-0.0061445
-0.00948901
-0.0103914
-0.00856367
-0.00409375
0.128027
0.1179
0.115364
0.110317
0.102086
0.0929949
0.0835195
0.0733879
0.0626922
0.0517629
0.0408967
0.0303724
0.0204802
0.0115745
0.00398618
-0.00189841
-0.00579471
-0.00738059
-0.00645845
-0.00309626
0.124659
0.120175
0.11894
0.113542
0.1062
0.0984267
0.0898526
0.0802262
0.0698251
0.059042
0.0481754
0.0375234
0.0273806
0.0181196
0.0100566
0.00358299
-0.00105224
-0.00354962
-0.00380588
-0.00194729
0.132449
0.132167
0.125132
0.116837
0.109015
0.101099
0.0923992
0.0828205
0.0726095
0.0620824
0.0514958
0.0411324
0.0312519
0.0221935
0.0142254
0.00768504
0.00276793
-0.00031868
-0.00152279
-0.00103122
0.129992
0.129417
0.12326
0.115588
0.108042
0.100323
0.0919193
0.0827558
0.0730328
0.063036
0.053005
0.0431985
0.0338403
0.0252171
0.0175526
0.011111
0.00604993
0.00248699
0.000463687
-0.000263345
0.131694
0.128679
0.123266
0.116362
0.108892
0.101029
0.0926266
0.0836628
0.0742719
0.0646812
0.0550967
0.0457439
0.0368097
0.0285281
0.0210737
0.0146508
0.00936411
0.00529263
0.00241485
0.000545846
0.136008
0.130579
0.125027
0.11843
0.110914
0.102819
0.0942924
0.0853998
0.0762268
0.0669329
0.0576779
0.0486532
0.0400091
0.0319397
0.0245676
0.0180632
0.0124663
0.00786624
0.00414798
0.00126616
0.141763
0.134577
0.128131
0.121221
0.113494
0.105166
0.0964782
0.0875668
0.0785029
0.0693958
0.0603577
0.0515472
0.0430782
0.0351167
0.0277361
0.0210906
0.0151572
0.0100555
0.00558666
0.00185163
0.148593
0.139909
0.132207
0.124589
0.116498
0.107922
0.0990499
0.0900446
0.0809845
0.0719543
0.0630261
0.0543277
0.0459371
0.037999
0.0305449
0.02372
0.0174521
0.0118892
0.00677765
0.00232016
0.155856
0.145836
0.136887
0.12843
0.119862
0.110993
0.101906
0.0927489
0.0836087
0.0745626
0.0656539
0.0569823
0.0485933
0.0406123
0.0330385
0.0260089
0.0194198
0.0134336
0.00777265
0.0026898
0.163015
0.151942
0.141928
0.132635
0.123518
0.114297
0.104956
0.0956043
0.0863248
0.0771921
0.0682311
0.0595184
0.0510717
0.0429976
0.0352725
0.028022
0.0211271
0.0147501
0.00861377
0.00298268
0.169936
0.158066
0.147164
0.137083
0.127384
0.117763
0.108132
0.0985529
0.0890937
0.0798238
0.0707565
0.0619499
0.0534011
0.0451966
0.0372988
0.0298182
0.0226326
0.0158929
0.00933858
0.00322214
0.17663
0.164104
0.152441
0.141638
0.131361
0.121315
0.11137
0.101542
0.0918773
0.082436
0.0732242
0.0642852
0.0556016
0.0472409
0.0391568
0.0314427
0.0239806
0.0169036
0.00997621
0.00342568
0.183032
0.16994
0.157619
0.14617
0.135346
0.124875
0.114605
0.104516
0.0946312
0.0849981
0.0756175
0.0665202
0.0576804
0.0491472
0.0408701
0.0329243
0.0252
0.01781
0.0105456
0.00360414
0.189018
0.175461
0.162583
0.150565
0.139237
0.128359
0.117767
0.107415
0.0973052
0.0874711
0.0779091
0.0686395
0.0596317
0.0509184
0.0424477
0.034277
0.0263062
0.0186273
0.0110573
0.0037632
0.194483
0.180577
0.167239
0.154724
0.14294
0.131681
0.120782
0.110175
0.0998444
0.0898099
0.0800643
0.0706184
0.0614397
0.0525466
0.0438878
0.0355037
0.0273043
0.0193611
0.0115155
0.00390462
0.199364
0.185211
0.171501
0.158557
0.146366
0.13476
0.123577
0.112731
0.102193
0.0919671
0.0820445
0.072427
0.0630828
0.0540171
0.0451814
0.0365995
0.0281924
0.0200111
0.0119204
0.0040276
0.20362
0.189294
0.17529
0.161985
0.149439
0.137525
0.126088
0.115026
0.104299
0.0938978
0.0838116
0.0740348
0.0645371
0.0553122
0.0463158
0.0375559
0.0289651
0.0205735
0.0122702
0.0041305
0.207216
0.192769
0.178539
0.164939
0.152094
0.139916
0.128259
0.117011
0.106119
0.0955634
0.0853327
0.0754143
0.0657807
0.0564152
0.0472786
0.0383639
0.0296162
0.0210445
0.0125625
0.00421258
0.210124
0.19559
0.181193
0.167363
0.154278
0.141884
0.130046
0.118645
0.107616
0.0969328
0.0865809
0.0765434
0.0667955
0.0573123
0.0480594
0.0390168
0.030141
0.0214216
0.0127961
0.004275
0.212336
0.197733
0.183209
0.169206
0.155939
0.143382
0.131408
0.119891
0.108759
0.0979777
0.0875324
0.0774025
0.0675661
0.0579915
0.0486494
0.0395087
0.0305355
0.0217035
0.0129706
0.00431958
0.213907
0.199234
0.184599
0.170459
0.15706
0.144389
0.132324
0.120729
0.109529
0.0986808
0.088172
0.0779792
0.0680826
0.0584459
0.0490429
0.0398357
0.0307975
0.0218901
0.0130858
0.0043475
0.21487
0.200137
0.1854
0.171154
0.157662
0.144921
0.132802
0.121165
0.109927
0.0990433
0.0885003
0.0782741
0.0683455
0.0586771
0.0492429
0.0400009
0.0309292
0.0219841
0.0131434
0.00436171
0.29899
0.26189
0.230548
0.204783
0.184424
0.168621
0.15658
0.146544
0.139039
0.124527
0.314261
0.277798
0.246562
0.21999
0.198126
0.17948
0.164743
0.149663
0.140753
0.125289
0.327906
0.292438
0.261795
0.234799
0.212087
0.191046
0.174706
0.156876
0.148056
0.13339
0.340018
0.30551
0.27546
0.248132
0.225066
0.202799
0.186164
0.167895
0.157962
0.142445
0.350704
0.317032
0.287511
0.260054
0.236966
0.214362
0.197443
0.178788
0.166513
0.150225
0.36014
0.327251
0.298251
0.270914
0.247875
0.225151
0.207415
0.188155
0.174242
0.157969
0.368497
0.336383
0.3079
0.280828
0.257752
0.234924
0.216404
0.196963
0.182451
0.166169
0.37592
0.344562
0.316563
0.289815
0.266691
0.243907
0.225028
0.205723
0.190866
0.174261
0.382507
0.351866
0.32432
0.297938
0.274863
0.25228
0.233302
0.214073
0.198797
0.181918
0.38833
0.358358
0.331251
0.305269
0.282337
0.259994
0.240953
0.221725
0.206098
0.189201
0.393451
0.364097
0.337416
0.311841
0.289088
0.266971
0.247876
0.228724
0.212878
0.196128
0.397948
0.369163
0.342864
0.317678
0.295103
0.273225
0.254116
0.235145
0.21914
0.202569
0.40182
0.373601
0.347632
0.322814
0.300411
0.278801
0.259707
0.240957
0.224798
0.208387
0.405111
0.377385
0.351735
0.327282
0.305046
0.283717
0.264642
0.246103
0.229796
0.213525
0.407816
0.380548
0.355205
0.33111
0.309032
0.287973
0.268913
0.250562
0.234127
0.217975
0.410005
0.383151
0.358085
0.334321
0.312386
0.291574
0.272527
0.25434
0.237794
0.221733
0.411708
0.385222
0.360399
0.33693
0.315126
0.294529
0.275497
0.257447
0.240794
0.224786
0.412936
0.386772
0.362168
0.338954
0.317274
0.29686
0.277847
0.259898
0.243143
0.227136
0.413656
0.387771
0.36337
0.340381
0.31883
0.298577
0.279603
0.261731
0.244898
0.228845
0.41383
0.388132
0.36388
0.341058
0.31963
0.299507
0.280598
0.2628
0.245954
0.229875
0.867412
0.869677
0.864472
0.852887
0.835793
0.812569
0.780456
0.735535
0.678778
0.645516
0.816565
0.814622
0.80118
0.782563
0.759634
0.730107
0.69031
0.636157
0.568722
0.527519
0.760485
0.752793
0.732845
0.708678
0.680394
0.64465
0.597389
0.534599
0.457333
0.40911
0.695996
0.683779
0.659957
0.631996
0.599248
0.557923
0.503985
0.433792
0.348073
0.294552
0.627883
0.612011
0.585495
0.554643
0.518169
0.472097
0.412558
0.33669
0.244601
0.188474
0.560153
0.540943
0.512305
0.479163
0.439673
0.3898
0.325806
0.24582
0.15164
0.094798
0.494837
0.47267
0.442561
0.407845
0.366211
0.313703
0.246805
0.164316
0.0731321
0.0162347
0.433249
0.4087
0.377984
0.34259
0.299866
0.246077
0.178316
0.0964286
0.0101646
-0.0451534
0.376505
0.350333
0.320243
0.285035
0.242092
0.188615
0.122225
0.0437296
-0.0357173
-0.0881717
0.324214
0.299581
0.270458
0.235985
0.194055
0.142428
0.0793919
0.00686886
-0.0636736
-0.112803
1.14603
1.15919
1.17383
1.18994
1.20748
1.22628
1.24572
1.2642
1.28038
1.30071
1.14312
1.15558
1.16966
1.18517
1.20196
1.21982
1.23813
1.25522
1.26979
1.28913
1.13698
1.14802
1.16102
1.17534
1.19064
1.20664
1.22268
1.23701
1.24851
1.26568
1.12701
1.13593
1.14736
1.15994
1.17304
1.18633
1.19902
1.20926
1.21624
1.23011
1.11243
1.11855
1.12794
1.13829
1.14856
1.15831
1.16665
1.17157
1.17261
1.1821
1.09237
1.09503
1.10196
1.10965
1.11652
1.12202
1.1251
1.12357
1.11733
1.12142
1.06602
1.06466
1.06887
1.07356
1.0765
1.07706
1.07407
1.06508
1.05034
1.04808
1.03212
1.02623
1.02779
1.02944
1.02809
1.02319
1.01348
0.996202
0.971896
0.962515
0.990173
0.980016
0.979516
0.977751
0.971501
0.960613
0.943659
0.917475
0.882755
0.865704
0.934883
0.925371
0.924482
0.918906
0.907266
0.890095
0.865565
0.830045
0.784342
0.759282
1.00218
1.00678
1.01198
1.01743
1.02288
1.02836
1.03394
1.03968
1.0456
1.05175
1.05813
1.06478
1.07173
1.07906
1.0868
1.09504
1.10382
1.11324
1.12335
1.13426
1.00218
1.00681
1.01201
1.01742
1.02284
1.02829
1.03384
1.03954
1.04542
1.05152
1.05784
1.06441
1.07127
1.07848
1.0861
1.09416
1.10274
1.1119
1.12169
1.13219
1.00223
1.00688
1.01202
1.01736
1.02272
1.02811
1.0336
1.03922
1.04501
1.051
1.05718
1.06359
1.07025
1.07723
1.08456
1.09227
1.10041
1.10903
1.11811
1.12775
1.00227
1.00694
1.01199
1.01723
1.02249
1.02779
1.03317
1.03868
1.04433
1.0501
1.05603
1.06217
1.06851
1.0751
1.08195
1.08908
1.0965
1.10422
1.11215
1.12038
1.00231
1.00697
1.0119
1.01697
1.02208
1.02722
1.03243
1.03773
1.04317
1.04865
1.05424
1.05996
1.06583
1.07184
1.07797
1.08423
1.09056
1.09695
1.10319
1.10932
1.00232
1.00696
1.01171
1.01655
1.02144
1.02638
1.03136
1.03641
1.04145
1.0465
1.05161
1.05677
1.06196
1.06714
1.07228
1.0773
1.08212
1.08665
1.09053
1.09371
1.00228
1.00685
1.01137
1.0159
1.02048
1.02511
1.02982
1.03445
1.03899
1.0435
1.04799
1.0524
1.05668
1.06075
1.06454
1.06789
1.07067
1.07265
1.07341
1.07263
1.00216
1.00653
1.01074
1.01492
1.01923
1.02354
1.02768
1.03172
1.03569
1.03955
1.04325
1.04669
1.04981
1.05244
1.0545
1.05571
1.05592
1.05461
1.05136
1.04533
1.00199
1.00605
1.00995
1.01374
1.01746
1.02116
1.02479
1.02828
1.03159
1.03463
1.03734
1.03958
1.04124
1.04206
1.04192
1.04033
1.03734
1.03197
1.02433
1.01157
1.00181
1.00527
1.00857
1.01183
1.01508
1.01828
1.02135
1.02416
1.02664
1.02867
1.03017
1.03091
1.03081
1.02943
1.02677
1.02177
1.01484
1.00317
0.989012
0.965272
1.0013
1.00422
1.00699
1.00962
1.0122
1.0147
1.017
1.01894
1.02041
1.02127
1.02143
1.02057
1.0186
1.01488
1.00942
1.00074
0.989308
0.971085
0.947766
0.906282
1.001
1.00304
1.00498
1.00694
1.0089
1.01074
1.01229
1.01336
1.01386
1.01358
1.01246
1.01012
1.00649
1.00082
0.993214
0.982011
0.967935
0.947219
0.922757
0.887823
1.00108
1.00197
1.00272
1.00387
1.00519
1.0064
1.00724
1.00747
1.00699
1.0056
1.00327
0.999564
0.994485
0.987189
0.97794
0.965055
0.949602
0.928275
0.904489
0.872019
1.0004
1.00088
1.0008
1.00084
1.00133
1.00193
1.0021
1.00147
0.999992
0.997504
0.994014
0.989051
0.982665
0.973977
0.963396
0.94926
0.932922
0.911167
0.887688
0.856126
0.999214
0.999036
0.997836
0.996878
0.996921
0.997203
0.996841
0.995391
0.99294
0.989396
0.984824
0.978713
0.971167
0.961284
0.949615
0.934502
0.917501
0.895409
0.87213
0.841522
1.0012
0.998093
0.993473
0.991635
0.991919
0.992337
0.991591
0.989339
0.985929
0.981389
0.975827
0.968681
0.96011
0.949202
0.936631
0.920755
0.903253
0.881016
0.857992
0.828425
0.998053
0.993858
0.988151
0.986141
0.98717
0.987948
0.986749
0.983565
0.979151
0.973653
0.967177
0.959092
0.9496
0.937807
0.924474
0.908014
0.890145
0.867934
0.845179
0.816606
1.00033
0.990526
0.980484
0.979458
0.982643
0.984212
0.98244
0.97816
0.972704
0.966304
0.958986
0.950044
0.939712
0.927151
0.913168
0.896269
0.878127
0.856052
0.833538
0.805892
0.998247
0.98295
0.971561
0.973579
0.97963
0.981822
0.979096
0.973495
0.966939
0.959642
0.951487
0.941714
0.930582
0.917335
0.902777
0.885543
0.867182
0.8453
0.822987
0.796204
0.998399
0.978197
0.965353
0.97031
0.978421
0.980289
0.976185
0.969314
0.961794
0.953661
0.944671
0.934091
0.922209
0.908364
0.893308
0.875823
0.85728
0.835618
0.813474
0.787474
1.00121
0.987057
0.978083
0.980493
0.983123
0.980511
0.973956
0.965922
0.957594
0.948604
0.93869
0.927267
0.914658
0.900283
0.884788
0.867107
0.848408
0.826964
0.804964
0.779649
0.994108
1.00225
1.01198
1.00819
0.996643
0.984202
0.973496
0.96407
0.954866
0.94484
0.933813
0.921442
0.90808
0.893195
0.87729
0.859429
0.840582
0.819319
0.797438
0.77269
1.00202
1.02527
1.03991
1.02875
1.00644
0.986582
0.97265
0.962211
0.952377
0.941491
0.929473
0.916257
0.90224
0.886926
0.870681
0.85267
0.833707
0.81259
0.790826
0.766519
1.00608
1.0364
1.0529
1.03829
1.01068
0.986844
0.97109
0.9601
0.949867
0.938341
0.925547
0.91166
0.897115
0.88145
0.864925
0.846786
0.827735
0.806727
0.785079
0.761104
1.00675
1.04029
1.05847
1.04169
1.01089
0.985042
0.968636
0.957499
0.947019
0.935083
0.921792
0.907472
0.892551
0.876621
0.859869
0.841639
0.822521
0.801627
0.780079
0.756405
1.00138
1.03539
1.05855
1.0425
1.01006
0.983206
0.966206
0.954547
0.943652
0.931487
0.918049
0.903578
0.888432
0.87232
0.855388
0.837122
0.817958
0.797217
0.775741
0.752401
0.981073
0.990023
1.0149
1.01587
1.00064
0.981954
0.965827
0.952453
0.940337
0.928015
0.914788
0.900358
0.885045
0.868774
0.851668
0.833381
0.814175
0.793602
0.772169
0.749156
0.99961
0.958456
0.930962
0.945295
0.966495
0.972023
0.963115
0.949261
0.935951
0.923609
0.91102
0.897273
0.882212
0.86594
0.848725
0.830448
0.811233
0.790824
0.769448
0.746696
1.00259
0.959557
0.924415
0.934445
0.957272
0.96574
0.95935
0.94702
0.934139
0.921737
0.909061
0.895315
0.880291
0.864049
0.846785
0.828509
0.809281
0.788983
0.767668
0.745115
0.979457
0.989795
1.01264
1.00468
0.982921
0.966342
0.955813
0.946044
0.934747
0.922094
0.908643
0.894459
0.879341
0.863126
0.845852
0.827568
0.808317
0.78807
0.766796
0.744397
0.860544
0.806705
0.7518
0.6921
0.628483
0.565073
0.50405
0.446034
0.391733
0.342135
0.853083
0.797896
0.740184
0.683394
0.624044
0.564196
0.50676
0.452317
0.401653
0.355636
0.840491
0.78786
0.729584
0.675128
0.620415
0.564454
0.510222
0.458955
0.411394
0.367614
0.82713
0.778486
0.721198
0.66796
0.616863
0.564674
0.513408
0.464793
0.419764
0.378046
0.814292
0.769302
0.713966
0.661735
0.613361
0.564712
0.516359
0.470048
0.427161
0.387225
0.802277
0.760395
0.707593
0.656575
0.610211
0.564606
0.519044
0.474842
0.433767
0.39535
0.791133
0.751858
0.70181
0.652289
0.607492
0.564377
0.521394
0.479184
0.439683
0.40257
0.780856
0.743777
0.696498
0.648714
0.605258
0.564121
0.523413
0.48308
0.444989
0.409011
0.771435
0.736204
0.691591
0.645695
0.603479
0.563904
0.525121
0.486519
0.44972
0.414755
0.762856
0.729171
0.687044
0.643096
0.602081
0.563752
0.526544
0.489496
0.453894
0.41985
0.755114
0.722709
0.68283
0.6408
0.600963
0.563654
0.527706
0.492009
0.45752
0.42434
0.748217
0.716858
0.678937
0.63871
0.600019
0.563577
0.528622
0.494062
0.460567
0.428282
0.742125
0.711616
0.675339
0.636734
0.599136
0.563466
0.52931
0.495691
0.462996
0.431271
0.736816
0.70697
0.672019
0.634818
0.598241
0.563281
0.529787
0.496959
0.465039
0.43411
0.732174
0.702806
0.668922
0.632937
0.597305
0.563011
0.530082
0.497918
0.466679
0.436392
0.728092
0.699032
0.666041
0.631135
0.596374
0.562688
0.530234
0.498608
0.467921
0.438187
0.72465
0.695747
0.663484
0.629506
0.595503
0.562339
0.530264
0.499058
0.468806
0.439539
0.721988
0.693119
0.661361
0.628079
0.594663
0.561907
0.530124
0.499245
0.469345
0.440468
0.720282
0.691362
0.659836
0.626916
0.593821
0.561305
0.529717
0.499082
0.469468
0.440926
0.719558
0.690619
0.659146
0.626286
0.593221
0.560727
0.529178
0.498645
0.46918
0.440848
)
;

boundaryField
{
    bottom
    {
        type            symmetryPlane;
    }
    right
    {
        type            fixedValue;
        value           uniform 0;
    }
    top
    {
        type            symmetryPlane;
    }
    left
    {
        type            fixedValue;
        value           uniform 1;
    }
    cylinder
    {
        type            zeroGradient;
    }
    defaultFaces
    {
        type            empty;
    }
}


// ************************************************************************* //
