/*--------------------------------*- C++ -*----------------------------------*\
| =========                 |                                                 |
| \\      /  F ield         | OpenFOAM: The Open Source CFD Toolbox           |
|  \\    /   O peration     | Version:  4.1                                   |
|   \\  /    A nd           | Web:      www.OpenFOAM.org                      |
|    \\/     M anipulation  |                                                 |
\*---------------------------------------------------------------------------*/
FoamFile
{
    version     2.0;
    format      ascii;
    class       surfaceScalarField;
    location    "11";
    object      phi;
}
// * * * * * * * * * * * * * * * * * * * * * * * * * * * * * * * * * * * * * //

dimensions      [0 3 -1 0 0 0 0];

internalField   nonuniform List<scalar> 
3890
(
0.000209719
0.00199934
-0.00220906
0.00183483
0.000923275
-0.00254839
0.00553091
-0.00351883
-0.000177251
0.0116699
-0.0103329
0.00419391
0.0202072
-0.0185221
0.00998482
0.0306857
-0.0270775
0.016599
0.0423954
-0.0351813
0.0234716
0.054724
-0.0423203
0.0299917
0.0670216
-0.0486178
0.0363201
-0.0528167
0.0412733
0.078565
0.000465585
0.00153376
0.00298146
-0.0015926
0.00824247
-0.00877984
0.0163462
-0.0184367
0.0266932
-0.0288691
0.0382808
-0.0386651
0.0501087
-0.0470092
0.061462
-0.0536736
0.0716259
-0.0587817
-0.0623258
0.0811349
0.000832354
0.000701407
0.00446476
-0.00522501
0.0114091
-0.0157242
0.0211196
-0.0281472
0.0322832
-0.0400327
0.0435442
-0.049926
0.0539678
-0.0574328
0.0631077
-0.0628136
0.0709514
-0.0666254
-0.0693239
0.0779496
0.00130321
-0.000601805
0.00618622
-0.010108
0.0145961
-0.0241341
0.0250591
-0.0386102
0.03576
-0.0507336
0.0454616
-0.0596276
0.0536878
-0.065659
0.0605393
-0.0696651
0.0663782
-0.0724642
-0.0745928
0.071647
0.00186022
-0.00246202
0.0079563
-0.0162041
0.0172267
-0.0334044
0.02736
-0.0487435
0.0365786
-0.0599522
0.0441871
-0.0672361
0.0502878
-0.0717597
0.0553332
-0.0747104
0.0597967
-0.0769277
-0.0789206
0.0641244
0.00246833
-0.00493035
0.00950035
-0.0232361
0.0187897
-0.0426938
0.027706
-0.0576599
0.0349997
-0.0672459
0.0406047
-0.072841
0.0449968
-0.0761518
0.0487208
-0.0784345
0.0521932
-0.0804
-0.0823491
0.0556217
0.00305956
-0.00798991
0.0105338
-0.0307103
0.0190564
-0.0512165
0.0262947
-0.0648982
0.0316813
-0.0726325
0.0355978
-0.0767575
0.038654
-0.0792079
0.0413379
-0.0811184
0.043927
-0.0829892
-0.0849677
0.0465457
0.00354073
-0.0115306
0.0108715
-0.038041
0.0181083
-0.0584533
0.0235689
-0.0703587
0.0272589
-0.0763225
0.0297898
-0.0792885
0.0317554
-0.0811734
0.0335274
-0.0828905
0.0352762
-0.084738
-0.086741
0.0370495
0.00382053
-0.0153512
0.0104764
-0.044697
0.0161981
-0.0641749
0.0199792
-0.0741399
0.0222153
-0.0785586
0.0235881
-0.0806613
0.0246016
-0.082187
0.0255137
-0.0838026
0.02641
-0.0856342
-0.0876386
0.0273075
0.00384363
-0.0191948
0.00946076
-0.0503141
0.0136247
-0.0683388
0.0158981
-0.0764133
0.0168925
-0.079553
0.0172587
-0.0810275
0.0173905
-0.0823188
0.0174537
-0.0838658
0.0174894
-0.0856699
0.0174959
-0.0876451
-0.000667717
0.000667717
-0.00201877
0.00135105
-0.00373785
0.00171909
-0.00565884
0.00192099
-0.00769764
0.0020388
-0.00982019
0.00212255
-0.0120221
0.00220187
-0.0143156
0.00229353
-0.0167259
0.00241034
0.0025673
-0.0192932
-0.000590499
0.00125822
-0.00179679
0.00255734
-0.00333086
0.00325316
-0.00502547
0.00361561
-0.00678821
0.00380153
-0.00857335
0.00390769
-0.0103644
0.00399293
-0.0121641
0.00409324
-0.0139893
0.00423548
0.0044571
-0.0158791
-0.000455606
0.00171382
-0.00140961
0.00351134
-0.00261144
0.00445499
-0.00389935
0.00490352
-0.00517054
0.00507272
-0.00636045
0.0050976
-0.00743076
0.00506324
-0.00836501
0.00502749
-0.00916443
0.0050349
0.00514265
-0.00984998
-0.000300037
0.00201386
-0.000946077
0.00415738
-0.00173232
0.00524123
-0.00250758
0.00567879
-0.0031629
0.00572803
-0.00361662
0.00555132
-0.00380428
0.00525091
-0.003681
0.0049042
-0.00322036
0.00457427
0.00437257
-0.00245029
-0.000160901
0.00217476
-0.000501475
0.00449795
-0.000852635
0.00559239
-0.00107612
0.00590227
-0.00106286
0.00571478
-0.000721482
0.00520993
3.14491e-05
0.00449798
0.00128113
0.00365452
0.00309874
0.00275666
0.00196664
0.00550468
-6.5159e-05
0.00223992
-0.000142984
0.00457578
-7.92173e-05
0.00552863
0.00026086
0.0055622
0.000991495
0.00498414
0.0022148
0.00398662
0.00403041
0.00268238
0.00653289
0.00115203
0.00981589
-0.000526328
-0.00238072
0.0141632
-2.18517e-05
0.00226177
0.00011151
0.00444242
0.000576137
0.005064
0.0015302
0.00460813
0.00311398
0.00340037
0.00545707
0.00164353
0.00867293
-0.000533482
0.0128572
-0.00303221
0.0180265
-0.00569569
-0.00910458
0.0247504
-1.24163e-05
0.00227419
0.000314218
0.00411579
0.00123111
0.00414711
0.00295423
0.00288501
0.00568171
0.00067289
0.00958153
-0.00225629
0.0147637
-0.00571568
0.0212465
-0.00951503
0.0289325
-0.0133817
-0.0184946
0.0383226
3.29722e-06
0.00227089
0.000581637
0.00353745
0.00211479
0.00261395
0.00490963
9.01821e-05
0.00922451
-0.003642
0.0152024
-0.00823414
0.0228502
-0.0133636
0.0319647
-0.0186295
0.0424353
-0.0238523
-0.0298151
0.0537558
6.18283e-05
0.00105089
0.00348759
0.00777168
0.0141145
0.0224794
0.0325874
0.0439496
0.0564174
0.0678757
-0.0209868
0.00169356
-0.0226735
0.00168675
-0.0243234
0.00164985
-0.0259243
0.00160093
-0.0274635
0.00153915
-0.0289262
0.00146277
-0.030297
0.00137075
-0.0315596
0.00126264
-0.0326982
0.00113857
-0.0336975
0.000999301
-0.0345438
0.000846314
-0.0352257
0.000681885
-0.0357349
0.000509274
-0.0360679
0.000332926
-0.0362257
0.000157819
-0.0362151
-1.06263e-05
-0.036056
-0.000159101
-0.0357702
-0.000285775
-0.0353788
-0.000391388
-0.000465095
-0.017362
0.00317647
-0.0188665
0.00319127
-0.0203635
0.00314683
-0.0218429
0.00308032
-0.0232939
0.00299017
-0.0247033
0.0028722
-0.0260563
0.0027237
-0.0273367
0.00254305
-0.0285278
0.0023297
-0.0296127
0.00208418
-0.0305747
0.00180831
-0.0313982
0.00150536
-0.0320694
0.00118054
-0.0325782
0.000841653
-0.0329192
0.000498836
-0.0330921
0.000162292
-0.0331045
-0.000146693
-0.0329799
-0.000410371
-0.0327491
-0.000622227
-0.000761821
-0.0109266
0.00425304
-0.0120575
0.00432226
-0.0132246
0.00431391
-0.0144211
0.00427678
-0.0156407
0.00420984
-0.0168744
0.0041059
-0.0181103
0.0039596
-0.0193347
0.00376747
-0.0205324
0.00352735
-0.0216865
0.00323824
-0.0227787
0.00290054
-0.0237897
0.00251637
-0.0246995
0.00209034
-0.0254883
0.00163045
-0.0261387
0.00114926
-0.0266387
0.000662251
-0.0269739
0.000188494
-0.0271539
-0.000230313
-0.0272144
-0.000561803
-0.000762949
-0.00294922
0.00475197
-0.00356188
0.00493492
-0.00424558
0.0049976
-0.00499402
0.00502522
-0.00581011
0.00502593
-0.0066917
0.00498748
-0.00763229
0.00490018
-0.00862349
0.00475867
-0.00965558
0.00455944
-0.0107169
0.0042996
-0.0117936
0.00397722
-0.0128692
0.00359192
-0.0139237
0.00314488
-0.0149354
0.00264214
-0.0158785
0.00209237
-0.0167276
0.00151127
-0.0174565
0.000917471
-0.0180322
0.000345399
-0.0184598
-0.000134245
-0.000419293
0.00556894
0.00468771
0.00549329
0.00501058
0.00533272
0.00515817
0.00510295
0.005255
0.00478993
0.00533896
0.00438612
0.00539128
0.00389256
0.00539375
0.00331187
0.00533936
0.00264654
0.00522478
0.00190026
0.00504588
0.00107904
0.00479845
0.000191231
0.00447973
-0.000754271
0.00409039
-0.00174314
0.00363101
-0.0027569
0.00310614
-0.00377074
0.0025251
-0.00475663
0.00190336
-0.00567024
0.00125901
-0.00645548
0.000650993
0.00022258
0.0146269
0.00422402
0.0149352
0.00470235
0.0151767
0.00491666
0.0153756
0.0050561
0.0155075
0.00520702
0.015558
0.00534074
0.0155251
0.00542668
0.0154066
0.00545789
0.0151981
0.00543327
0.0148958
0.00534813
0.0144977
0.00519657
0.0140032
0.00497426
0.0134139
0.00467969
0.0127323
0.00431262
0.0119627
0.00387567
0.0111141
0.00337376
0.0101993
0.00281816
0.00924153
0.00221676
0.00829705
0.00159548
0.00105552
0.0252652
0.00370921
0.0256689
0.00429862
0.0260626
0.00452294
0.0264659
0.00465286
0.0268412
0.00483175
0.027175
0.00500693
0.027466
0.00513568
0.0277074
0.00521647
0.0278886
0.00525208
0.0280001
0.00523666
0.0280339
0.00516269
0.0279836
0.00502457
0.0278431
0.00482022
0.0276077
0.00454801
0.0272721
0.00421124
0.0268339
0.00381202
0.0262874
0.00336466
0.0256352
0.0028689
0.0248686
0.00236211
0.00180709
0.0385174
0.00351438
0.0387442
0.00407184
0.0390725
0.00419469
0.0394581
0.00426725
0.0398562
0.00443362
0.0402704
0.00459273
0.0406998
0.00470627
0.0411307
0.00478559
0.0415481
0.00483469
0.0419402
0.00484458
0.0422957
0.00480711
0.0426047
0.00471564
0.042856
0.00456891
0.0430415
0.00436245
0.0431494
0.00410339
0.0431746
0.00378679
0.0430975
0.00344177
0.0429253
0.00304106
0.0426052
0.00268228
0.00218957
0.0536257
0.0036445
0.053762
0.00393553
0.0541133
0.00384344
0.054503
0.00387747
0.0549206
0.00401603
0.0553871
0.00412626
0.0558917
0.00420165
0.0564194
0.00425794
0.0569613
0.00429275
0.0575115
0.00429442
0.058061
0.00425758
0.0586023
0.0041743
0.0591241
0.00404717
0.0596202
0.00386628
0.060075
0.0036486
0.0604878
0.00337398
0.0608325
0.00309707
0.0611217
0.00275194
0.0613011
0.00250287
0.00209625
0.0682185
0.00330163
0.0689778
0.00317622
0.0696493
0.00317194
0.0702569
0.00326991
0.0708847
0.00338825
0.0715253
0.00348559
0.0721675
0.00355945
0.0728165
0.00360898
0.0734774
0.00363183
0.0741535
0.00361829
0.0748426
0.00356849
0.0755455
0.00347139
0.0762551
0.00333766
0.0769724
0.00314896
0.0776827
0.00293828
0.0783915
0.00266519
0.0790735
0.00241504
0.0797427
0.00208274
0.0803695
0.00187609
0.00151376
0.0938461
0.00420352
-0.094748
0.0928883
0.00413406
0.0920434
0.00401687
0.0913586
0.00395464
0.0908201
0.00392675
0.0904018
0.00390392
0.0900825
0.00387878
0.0898494
0.00384202
0.0896909
0.00379037
0.0895977
0.00371148
0.0895564
0.00360979
0.0895587
0.00346909
0.0895886
0.00330772
0.08964
0.00309756
0.0896931
0.00288521
0.0897455
0.00261278
0.0897756
0.002385
0.0897856
0.00207274
0.0897609
0.00190077
0.00158081
0.104104
0.00425263
-0.104153
0.103931
0.00430649
0.103682
0.00426623
0.103443
0.00419311
0.103242
0.00412829
0.103076
0.00407001
0.102943
0.00401164
0.102845
0.00394002
0.10278
0.00385565
0.102746
0.00374552
0.102735
0.00361996
0.102746
0.00345848
0.102766
0.00328758
0.102793
0.00307034
0.102813
0.0028653
0.102826
0.00260007
0.102817
0.00239432
0.102789
0.00210082
0.102734
0.00195523
0.00166046
0.111024
0.00429393
-0.111065
0.111092
0.00423875
0.11117
0.0041884
0.111251
0.00411144
0.111348
0.00403184
0.111461
0.0039571
0.111586
0.00388619
0.111722
0.00380408
0.111865
0.00371304
0.112012
0.00359765
0.11216
0.0034726
0.112305
0.0033135
0.112439
0.00315305
0.112562
0.00294767
0.112664
0.00276359
0.112744
0.00251938
0.112797
0.00234157
0.112823
0.00207525
0.112824
0.00195382
0.00168454
0.116223
0.00420938
-0.116138
0.116406
0.00405593
0.116632
0.00396231
0.116871
0.00387256
0.117121
0.00378166
0.117385
0.00369245
0.117662
0.0036097
0.117946
0.00351978
0.118232
0.00342673
0.118517
0.00331282
0.118795
0.00319509
0.119062
0.00304663
0.119312
0.00290315
0.119541
0.00271794
0.119746
0.00255917
0.119922
0.00234331
0.120069
0.00219425
0.120184
0.00196083
0.120276
0.00186097
0.0016229
0.120613
0.00398471
-0.120388
0.120874
0.00379516
0.12117
0.00366569
0.121485
0.00355789
0.12181
0.00345705
0.122145
0.00335734
0.12249
0.00326488
0.122841
0.00316813
0.123195
0.00307318
0.123546
0.0029616
0.12389
0.00285105
0.124223
0.00271409
0.124539
0.00258648
0.124835
0.002422
0.125108
0.00228603
0.125353
0.00209859
0.125573
0.00197429
0.12576
0.00177348
0.12593
0.00169162
0.00148613
0.124866
0.00369451
-0.124576
0.125166
0.00349534
0.125489
0.00334235
0.12583
0.00321714
0.12618
0.00310693
0.126537
0.00300016
0.126901
0.00290116
0.127269
0.00279957
0.127639
0.00270309
0.128007
0.00259392
0.128369
0.00248938
0.12872
0.00236292
0.129058
0.00224841
0.129378
0.00210237
0.129679
0.00198491
0.129955
0.00182252
0.130211
0.00171795
0.130439
0.00154598
0.130652
0.00147836
0.00130208
0.12932
0.00338356
-0.129009
0.129633
0.00318198
0.129959
0.0030167
0.130297
0.00287946
0.130642
0.00276168
0.130992
0.00265016
0.131346
0.00254731
0.131702
0.00244309
0.13206
0.00234591
0.132414
0.00223937
0.132763
0.00213994
0.133104
0.00202272
0.133433
0.00191888
0.133747
0.0017885
0.134046
0.00168574
0.134324
0.00154431
0.134587
0.00145518
0.134826
0.0013073
0.135054
0.00125067
0.00109904
0.134049
0.00306407
-0.133729
0.134363
0.00286739
0.13468
0.00269992
0.135002
0.00255733
0.135329
0.00243511
0.135658
0.00232112
0.135988
0.00221678
0.136319
0.00211218
0.136649
0.00201565
0.136976
0.00191233
0.137299
0.0018177
0.137613
0.00170881
0.137918
0.00161397
0.138209
0.00149688
0.138489
0.00140603
0.138751
0.00128197
0.139001
0.00120507
0.139232
0.00107699
0.139453
0.00102893
0.000897949
0.138975
0.00274238
-0.138653
0.139285
0.00255734
0.13959
0.00239489
0.139895
0.00225283
0.1402
0.00212999
0.140505
0.00201622
0.140809
0.00191283
0.141111
0.00181013
0.14141
0.00171599
0.141706
0.00161693
0.141996
0.00152741
0.142278
0.00142647
0.142553
0.00133976
0.142815
0.00123433
0.143068
0.00115359
0.143305
0.00104421
0.143533
0.000977339
0.143744
0.000865806
0.143949
0.00082467
0.000711244
0.143957
0.00242339
-0.143638
0.144262
0.00225293
0.144557
0.00209983
0.144847
0.00196307
0.145133
0.00184355
0.145416
0.00173307
0.145696
0.00163317
0.145971
0.00153468
0.146242
0.00144484
0.146508
0.00135141
0.146768
0.0012678
0.147019
0.00117499
0.147263
0.00109615
0.147495
0.00100154
0.147719
0.000929855
0.14793
0.000833466
0.148132
0.000775206
0.14832
0.000678088
0.148502
0.000642763
0.000544758
0.148836
0.00210642
-0.148519
0.149137
0.00195176
0.149426
0.00181089
0.149706
0.00168333
0.149979
0.00157087
0.150245
0.00146681
0.150505
0.00137299
0.150759
0.001281
0.151006
0.00119743
0.151247
0.00111122
0.15148
0.00103461
0.151704
0.000950567
0.15192
0.00087982
0.152126
0.000795811
0.152323
0.000732714
0.152508
0.00064846
0.152686
0.000597992
0.15285
0.000514077
0.153008
0.000483873
0.000400017
0.153473
0.00178801
-0.153155
0.153774
0.00165081
0.154061
0.00152466
0.154334
0.00140946
0.154598
0.00130731
0.154852
0.00121262
0.155098
0.00112738
0.155335
0.00104411
0.155563
0.000968722
0.155783
0.000891389
0.155995
0.000823031
0.156197
0.000748695
0.15639
0.000686552
0.156572
0.000613407
0.156746
0.000558839
0.156908
0.000486477
0.157063
0.000443402
0.157205
0.000372166
0.157342
0.000346673
0.000276359
0.157782
0.00146866
-0.157463
0.158082
0.00135084
0.158365
0.00124156
0.158633
0.00114114
0.158889
0.00105182
0.159133
0.000968925
0.159366
0.000894403
0.159588
0.000821791
0.1598
0.000756241
0.160003
0.000689281
0.160195
0.000630335
0.160377
0.000566664
0.16055
0.000513715
0.160712
0.000451876
0.160865
0.000405948
0.161005
0.000345532
0.161139
0.000309665
0.16126
0.00025093
0.161377
0.000229898
0.000172829
0.161731
0.00115751
-0.16142
0.162022
0.00106016
0.162295
0.000968988
0.162551
0.000884751
0.162793
0.000809738
0.163022
0.000740158
0.163239
0.000677734
0.163443
0.000617038
0.163637
0.000562388
0.16382
0.000506758
0.163992
0.00045795
0.164153
0.000405541
0.164305
0.000362117
0.164445
0.000311803
0.164576
0.000274509
0.164696
0.000225964
0.164808
0.000197097
0.164909
0.000150582
0.165005
0.000133785
8.95061e-05
0.165301
0.000870976
-0.165015
0.165568
0.000793568
0.165816
0.000720367
0.166049
0.000652414
0.166267
0.000591953
0.166471
0.000536012
0.166663
0.000485987
0.166842
0.000437468
0.167011
0.000393896
0.167168
0.000349703
0.167315
0.000311044
0.16745
0.000269793
0.167577
0.000235694
0.167692
0.000196557
0.167799
0.000167521
0.167895
0.000130271
0.167984
0.000107981
0.168061
7.29095e-05
0.168135
6.00291e-05
2.7525e-05
0.168422
0.000624054
-0.168175
0.168651
0.000564672
0.168863
0.00050814
0.16906
0.000455531
0.169243
0.000408865
0.169414
0.000365884
0.169572
0.00032762
0.169719
0.000290632
0.169855
0.000257509
0.169981
0.000224066
0.170097
0.00019489
0.170203
0.000163998
0.1703
0.000138488
0.170387
0.000109553
0.170466
8.802e-05
0.170536
6.09015e-05
0.170599
4.45019e-05
0.170653
1.95209e-05
0.170703
1.01061e-05
-1.22718e-05
0.170981
0.000421374
-0.170778
0.171168
0.000377867
0.17134
0.00033642
0.171497
0.000297937
0.171642
0.000264014
0.171775
0.000232954
0.171897
0.000205437
0.172009
0.000178942
0.172111
0.000155286
0.172204
0.000131528
0.172288
0.00011086
0.172362
8.91625e-05
0.17243
7.12622e-05
0.172488
5.12116e-05
0.17254
3.6228e-05
0.172583
1.77613e-05
0.172621
6.42901e-06
0.172651
-1.01534e-05
0.172677
-1.66169e-05
-3.08903e-05
0.172898
0.000257558
-0.172734
0.173047
0.000228358
0.173183
0.000200792
0.173305
0.000175573
0.173415
0.000153557
0.173515
0.000133505
0.173605
0.000115806
0.173685
9.88146e-05
0.173756
8.36909e-05
0.173819
6.85736e-05
0.173875
5.54683e-05
0.173922
4.18131e-05
0.173963
3.05659e-05
0.173996
1.81141e-05
0.174023
8.75699e-06
0.174044
-2.53653e-06
0.17406
-9.55756e-06
0.174069
-1.94319e-05
0.174076
-2.34117e-05
-3.15757e-05
0.174165
0.000123106
-0.174031
0.174287
0.000106791
0.174395
9.25628e-05
0.174491
8.00933e-05
0.174575
6.93935e-05
0.174649
5.96578e-05
0.174713
5.10585e-05
0.174769
4.27682e-05
0.174818
3.54149e-05
0.174858
2.80726e-05
0.174892
2.17606e-05
0.174918
1.51922e-05
0.174939
9.82302e-06
0.174953
3.90655e-06
0.174963
-5.41409e-07
0.174966
-5.88684e-06
0.174966
-9.16538e-06
0.17496
-1.3756e-05
0.174952
-1.55776e-05
-1.92252e-05
0.174799
-0.174676
0.174906
0.174998
0.175078
0.175148
0.175207
0.175258
0.175301
0.175337
0.175365
0.175386
0.175402
0.175411
0.175415
0.175415
0.175409
0.1754
0.175386
0.17537
0.0910765
0.0162267
-0.0898072
0.0924225
0.0259615
0.0938699
0.0356021
0.0953688
0.0450468
0.0969699
0.0540206
0.0985228
0.0625715
0.0997999
0.0703699
0.100836
0.0769133
0.0983267
0.0836444
0.0821437
0.0934985
0.0150648
-0.0923366
0.0947791
0.0246809
0.0962228
0.0341584
0.0977941
0.0434755
0.0994506
0.0523641
0.101365
0.0606574
0.102883
0.0688519
0.105116
0.0746804
0.105691
0.0830694
0.0836814
0.0962001
0.0140072
-0.0951425
0.0974281
0.0234529
0.0988213
0.0327653
0.10046
0.0418372
0.102121
0.0507028
0.104251
0.058527
0.106104
0.0669995
0.108439
0.0723453
0.11069
0.0808185
0.0833059
0.0990897
0.0130311
-0.0981136
0.100301
0.0222413
0.101669
0.0313975
0.10336
0.0401466
0.105092
0.0489706
0.107226
0.0563931
0.109406
0.064819
0.111553
0.0701985
0.114388
0.0779836
0.0815557
0.1021
0.0121087
-0.101178
0.103314
0.0210275
0.104717
0.029994
0.106441
0.0384227
0.10832
0.0470922
0.110401
0.0543119
0.112813
0.0624071
0.114999
0.0680121
0.11791
0.0750733
0.0790768
0.105171
0.0112123
-0.104275
0.106392
0.0198069
0.107878
0.0285078
0.109646
0.0366546
0.1117
0.0450382
0.113845
0.0521675
0.116422
0.0598301
0.118857
0.0655772
0.121761
0.0721691
0.0762618
0.108234
0.0103218
-0.107344
0.109472
0.018569
0.11106
0.0269202
0.112919
0.0347956
0.115149
0.0428078
0.11749
0.0498265
0.120226
0.057094
0.122961
0.062842
0.125972
0.0691582
0.0732249
0.111222
0.0094283
-0.110328
0.112496
0.0172952
0.114186
0.0252293
0.116186
0.0327963
0.118593
0.040401
0.121193
0.0472259
0.124131
0.0541562
0.127173
0.0598001
0.130434
0.0658969
0.06993
0.114082
0.00853043
-0.113184
0.115408
0.0159692
0.117199
0.0234379
0.119364
0.0306317
0.121956
0.0378092
0.124828
0.0443532
0.12803
0.0509541
0.131403
0.0564272
0.135019
0.0622807
0.066296
0.116787
0.00763057
-0.115887
0.11817
0.0145863
0.120058
0.02155
0.122387
0.0283025
0.125174
0.0350226
0.128315
0.0412122
0.131826
0.0474427
0.135557
0.0526963
0.139586
0.0582517
0.0622439
0.119344
0.00673379
-0.118447
0.120777
0.0131537
0.122753
0.0195738
0.12523
0.0258255
0.128209
0.0320431
0.131605
0.0378167
0.135434
0.0436135
0.139532
0.0485986
0.143993
0.0537902
0.0577179
0.121786
0.0058494
-0.120901
0.123253
0.0116863
0.125303
0.017524
0.127904
0.0232245
0.131058
0.0288885
0.134683
0.0341919
0.138806
0.0394902
0.143257
0.044148
0.148137
0.0489099
0.0527002
0.124155
0.00498281
-0.123288
0.125637
0.0102038
0.127742
0.0154194
0.130441
0.0205249
0.133743
0.025587
0.137566
0.0303692
0.141943
0.0351126
0.146716
0.0393756
0.151975
0.0436508
0.0472121
0.126461
0.0041579
-0.125636
0.127941
0.00872333
0.130082
0.0132786
0.132859
0.0177477
0.13628
0.0221661
0.140273
0.0263768
0.144865
0.0305205
0.149921
0.0343191
0.155509
0.0380628
0.0413012
0.128636
0.00338483
-0.127863
0.130105
0.00725499
0.132271
0.0111127
0.135113
0.0149055
0.138635
0.0186442
0.142777
0.0222349
0.147554
0.0257432
0.15286
0.0290129
0.158734
0.0321892
0.0350203
0.130546
0.00265847
-0.12982
0.132004
0.00579717
0.134193
0.00892377
0.137095
0.0120033
0.140707
0.015032
0.144983
0.0179586
0.149924
0.0208022
0.15545
0.0234869
0.161574
0.0260659
0.0284185
0.132075
0.00196296
-0.131379
0.13353
0.00434167
0.135744
0.00671037
0.138701
0.00904659
0.142392
0.0113406
0.146783
0.0135672
0.151864
0.0157219
0.157575
0.0177758
0.163908
0.0197324
0.0215485
0.133212
0.00128775
-0.132537
0.134668
0.00288588
0.136901
0.00447723
0.139899
0.00604807
0.143651
0.0075888
0.14813
0.00908848
0.153316
0.0105358
0.159168
0.0119242
0.16566
0.0132396
0.0144752
0.134005
0.000635348
-0.133352
0.135454
0.00143707
0.137694
0.00223721
0.140715
0.00302711
0.144502
0.00380126
0.149035
0.00455585
0.154288
0.00528294
0.160229
0.00598279
0.166825
0.00664395
0.00726894
0.134439
-0.133803
0.135876
0.138113
0.14114
0.144941
0.149497
0.15478
0.160763
0.167407
0.0429407
0.0537437
-0.0477936
-0.0488908
0.0369677
0.0526697
-0.0466967
0.0313441
0.0520356
-0.0464119
0.0259874
0.0519374
-0.0465806
0.0207948
0.0522927
-0.0471002
0.0157095
0.0530987
-0.0480133
0.0107231
0.0542484
-0.049262
0.00597353
0.0545988
-0.0498492
0.00198775
0.049731
-0.0457452
0.0287054
-0.0267176
0.0406925
0.0596074
-0.0465563
0.0349324
0.0584298
0.0294141
0.0575539
0.0241748
0.0571766
0.019147
0.0573206
0.014261
0.0579846
0.00951619
0.0589932
0.0050931
0.0590219
0.00155542
0.0532687
0.0302608
0.0375983
0.0651109
-0.0431019
0.0321461
0.0638821
0.0268633
0.0628367
0.0218282
0.0622117
0.0170237
0.0621251
0.0123997
0.0626087
0.00797627
0.0634167
0.00398498
0.0630132
0.00101745
0.0562362
0.0312782
0.0334694
0.0702176
-0.0385761
0.0284488
0.0689027
0.0235532
0.0677323
0.0188596
0.0669053
0.0143846
0.0666001
0.01011
0.0668833
0.00609497
0.0674317
0.00264643
0.0664617
0.000368487
0.0585141
0.0316467
0.0283926
0.0748645
-0.0330395
0.0238665
0.0734288
0.019465
0.0721338
0.0152363
0.0711341
0.0112046
0.0706318
0.00738206
0.0707058
0.00387345
0.0709403
0.00105709
0.0692781
-0.00033589
0.0599071
0.0313108
0.0223903
0.0789418
-0.0264676
0.0184533
0.0773658
0.0146426
0.0759445
0.0109818
0.0747949
0.00749624
0.0741173
0.00423095
0.0739711
0.001359
0.0738122
-0.000679007
0.0713161
-0.00105873
0.0602868
0.0302521
0.0155746
0.0823332
-0.0189659
0.0123101
0.0806302
0.00916638
0.0790882
0.00615576
0.0778055
0.00330587
0.0769672
0.00069347
0.0765835
-0.00141564
0.0759213
-0.00244495
0.0723454
-0.00179907
0.0596409
0.028453
0.00804283
0.0849399
-0.0106495
0.00551865
0.0831544
0.00312323
0.0814837
0.000841051
0.0800877
-0.00130895
0.0791172
-0.00317627
0.0784508
-0.00440003
0.0771451
-0.00434883
0.0722942
-0.00251372
0.0578058
0.0259393
-0.00013342
0.0868047
-0.00173143
-0.00180496
0.084826
-0.00340139
0.0830801
-0.00492172
0.081608
-0.00629286
0.0804883
-0.00731559
0.0794735
-0.00752966
0.0773592
-0.00624175
0.0710063
-0.00313997
0.0547041
0.0227993
-0.00864875
0.00780833
-0.00949268
-0.0102784
-0.0109891
-0.0115283
-0.0116078
-0.0106619
-0.00799447
-0.00360452
0.0358701
0.00340046
-0.0392705
0.0323388
0.00353128
0.0286559
0.00368292
0.0248
0.00385588
0.0207421
0.00405788
0.0164456
0.00429647
0.0118829
0.00456278
0.00712752
0.00475534
0.00265729
0.00447023
0.00265729
0.0364011
0.00692637
-0.039927
0.0327595
0.0071729
0.0289812
0.00746123
0.0250447
0.00779239
0.0209204
0.00818217
0.0165706
0.00864621
0.0119647
0.00916873
0.00717302
0.009547
0.00268062
0.00896263
0.00533791
0.037401
0.0106904
-0.041165
0.0335499
0.0110241
0.0295902
0.0114209
0.0254999
0.0118827
0.0212484
0.0124336
0.0167966
0.0130981
0.0121113
0.013854
0.00725863
0.0143997
0.00271379
0.0135075
0.0080517
0.0387505
0.0147778
-0.0428379
0.0346136
0.015161
0.0304057
0.0156288
0.0261048
0.0161837
0.0216793
0.0168591
0.0170885
0.0176889
0.012296
0.0186464
0.00736199
0.0193337
0.00275371
0.0181158
0.0108054
0.0402863
0.0192396
-0.0447482
0.0358163
0.0196311
0.0313184
0.0201267
0.0267717
0.0207303
0.0221445
0.0214863
0.0173937
0.0224398
0.0124797
0.0235604
0.00745762
0.0243558
0.00278739
0.022786
0.0135928
0.0418244
0.0240839
-0.0466688
0.037008
0.0244475
0.0322046
0.0249301
0.0273995
0.0255355
0.0225619
0.0263239
0.0176473
0.0273544
0.0126137
0.0285939
0.00751289
0.0294566
0.00279938
0.0274995
0.0163922
0.043147
0.0292961
-0.0483592
0.0379934
0.0296011
0.0329035
0.03002
0.0278648
0.0305741
0.0228392
0.0313496
0.0177794
0.0324141
0.0126459
0.0337274
0.00749273
0.0346098
0.00277318
0.032219
0.0191654
0.0441556
0.0348344
-0.0496939
0.0386716
0.0350851
0.0333171
0.0353744
0.0280749
0.0358163
0.0228928
0.0365317
0.0177216
0.0375853
0.0125247
0.0389243
0.00736267
0.0397719
0.0026929
0.0368888
0.0218583
0.044422
0.0408141
-0.0504018
0.0386877
0.0408194
0.0332144
0.0408478
0.0278721
0.0411586
0.0226061
0.0417977
0.0173872
0.0428042
0.0121886
0.0441229
0.00708441
0.0448761
0.00254359
0.0414296
0.0244019
0.0441187
-0.0510982
0.0382414
0.0326772
0.0272552
0.0219527
0.0167436
0.0116045
0.00663132
0.00231575
0.0430715
-0.000126275
0.0431966
-0.000125127
0.0433191
-0.000122497
0.0434341
-0.000114997
0.0435373
-0.000103169
0.0436245
-8.72148e-05
0.0436912
-6.66962e-05
0.0437319
-4.0744e-05
0.0437391
-7.1692e-06
0.0437124
2.67035e-05
0.0436452
6.72179e-05
0.0435288
0.000116374
0.0433538
0.000175008
0.0431093
0.000244493
0.0427826
0.000326671
0.0423588
0.000423814
0.04182
0.000538803
0.0411449
0.000675143
0.0403084
0.000836484
0.00103786
0.0439016
-0.000253122
0.0440257
-0.000249238
0.0441452
-0.000242071
0.0442565
-0.000226223
0.0443555
-0.000202224
0.0444383
-0.000169961
0.0445001
-0.000128482
0.0445354
-7.60699e-05
0.0445361
-7.90799e-06
0.0445038
5.90111e-05
0.0444296
0.000141417
0.044305
0.000240953
0.0441206
0.000359448
0.0438654
0.000499737
0.0435265
0.000665531
0.043089
0.00086136
0.0425347
0.00109301
0.0418424
0.00136747
0.0409873
0.00169165
0.0020981
0.0455334
-0.000369682
0.0456475
-0.00036334
0.0457574
-0.000351967
0.0458587
-0.000327515
0.0459472
-0.000290736
0.0460187
-0.000241393
0.0460682
-0.000178014
0.0460898
-9.76601e-05
0.0460755
6.36913e-06
0.0460289
0.000105623
0.0459381
0.000232229
0.0457947
0.000384365
0.0455891
0.000564979
0.0453104
0.000778515
0.0449453
0.0010306
0.0444787
0.00132801
0.0438923
0.0016794
0.0431643
0.00209538
0.0422713
0.00258472
0.00320433
0.0479061
-0.00046431
0.0479982
-0.000455515
0.0480863
-0.000440005
0.0481654
-0.000406656
0.0482308
-0.000356143
0.0482777
-0.000288237
0.0483006
-0.000200986
0.0482934
-9.04401e-05
0.0482585
4.12996e-05
0.0481826
0.000181544
0.04806
0.000354787
0.0478822
0.000562232
0.0476391
0.000807988
0.0473196
0.00109806
0.0469103
0.00143994
0.0463954
0.00184284
0.0457568
0.00231804
0.0449715
0.00288071
0.0440186
0.00353763
0.00438498
0.050937
-0.000519596
0.0509896
-0.000508062
0.0510373
-0.000487773
0.0510754
-0.000444777
0.0510988
-0.000379524
0.0511022
-0.000291624
0.0510801
-0.000178927
0.0510224
-3.27295e-05
0.0509422
0.000121505
0.0508171
0.000306643
0.0506417
0.000530181
0.0504078
0.000796212
0.0501053
0.00111048
0.0497224
0.00148091
0.0492458
0.00191653
0.048659
0.00242969
0.047944
0.00303302
0.0470751
0.00374961
0.0460373
0.00457543
0.00567411
0.0545315
-0.000511474
0.0545197
-0.000496208
0.0545009
-0.000468946
0.0544702
-0.000414119
0.0544226
-0.00033192
0.0543528
-0.000221846
0.0542522
-7.83199e-05
0.0541311
8.84281e-05
0.0539736
0.000278995
0.0537689
0.00051135
0.053511
0.00078808
0.0531912
0.00111597
0.0527999
0.00150183
0.0523243
0.00195652
0.0517514
0.00248939
0.0510627
0.00311841
0.0502422
0.00385352
0.0492578
0.00473396
0.0481057
0.00572752
0.00711102
0.0585937
-0.000407339
0.0584836
-0.000386093
0.0583623
-0.000347585
0.0582272
-0.000279068
0.0580733
-0.000177979
0.0578869
-3.54394e-05
0.0576856
0.000122923
0.0574566
0.000317399
0.0571831
0.000552568
0.0568612
0.000833246
0.0564843
0.00116498
0.0560426
0.00155764
0.0555271
0.00201732
0.0549233
0.00256031
0.0542206
0.00319213
0.0533956
0.00394334
0.052439
0.0048102
0.0513043
0.00586861
0.0500045
0.00702731
0.00875639
0.0630329
-0.000162203
0.0627818
-0.000134961
0.0625128
-7.86555e-05
0.062218
1.57594e-05
0.0619107
0.000129321
0.0615911
0.000284197
0.0612383
0.000475742
0.0608475
0.000708195
0.0604148
0.000985267
0.0599326
0.00131545
0.0593945
0.00170299
0.0587894
0.00216279
0.0581101
0.00269657
0.0573378
0.00333269
0.0564668
0.00406308
0.0554618
0.00494836
0.0543313
0.00594073
0.0530057
0.00719417
0.0515336
0.00849945
0.0105961
0.0677649
0.000277206
0.0673126
0.000317354
0.0668466
0.000387367
0.0663705
0.000491844
0.0658678
0.000632071
0.0653386
0.000813418
0.0647782
0.00103614
0.0641811
0.00130526
0.0635429
0.00162342
0.062855
0.00200342
0.0621121
0.00244584
0.0613004
0.00297454
0.0604177
0.00357926
0.0594389
0.00431143
0.0583722
0.0051298
0.0571536
0.00616698
0.0558198
0.00727455
0.0542203
0.00879367
0.0525388
0.0101809
0.0127331
0.0727909
0.00102676
0.0720742
0.00103405
0.0713562
0.00110533
0.0706202
0.00122784
0.0698593
0.00139295
0.0690717
0.00160104
0.0682555
0.00185237
0.067405
0.00215572
0.0665165
0.00251195
0.0655803
0.00293964
0.0645936
0.00343249
0.0635393
0.00402891
0.0624213
0.00469724
0.061206
0.00552667
0.0599253
0.00641052
0.0584982
0.00759411
0.0570619
0.0087108
0.0553197
0.010536
0.053713
0.0117875
0.015348
0.0721267
0.000968945
0.0721467
0.00101409
0.0721422
0.00110987
0.0721245
0.00124554
0.072099
0.00141839
0.0720685
0.00163152
0.0720378
0.00188311
0.0720088
0.0021847
0.0719869
0.00253386
0.071972
0.00295453
0.0719753
0.00342923
0.0719945
0.00400973
0.0720559
0.00463582
0.0721449
0.0054377
0.0723265
0.00622885
0.0725516
0.007369
0.0729881
0.00827437
0.0735344
0.00998966
0.0747041
0.0106178
0.0132742
0.0767779
0.0773515
0.000923923
0.0773607
0.00100492
0.0773541
0.00111644
0.077339
0.00126061
0.0773163
0.00144107
0.0772898
0.00165802
0.0772664
0.00190653
0.0772492
0.00220196
0.0772434
0.00253965
0.0772505
0.00294738
0.0772811
0.00339865
0.0773381