/*--------------------------------*- C++ -*----------------------------------*\
| =========                 |                                                 |
| \\      /  F ield         | OpenFOAM: The Open Source CFD Toolbox           |
|  \\    /   O peration     | Version:  4.1                                   |
|   \\  /    A nd           | Web:      www.OpenFOAM.org                      |
|    \\/     M anipulation  |                                                 |
\*---------------------------------------------------------------------------*/
FoamFile
{
    version     2.0;
    format      ascii;
    class       volVectorField;
    location    "11";
    object      U;
}
// * * * * * * * * * * * * * * * * * * * * * * * * * * * * * * * * * * * * * //

dimensions      [0 1 -1 0 0 0 0];

internalField   nonuniform List<vector> 
2000
(
(-0.0331369 0.0278104 -9.52025e-21)
(-0.0190505 0.03607 0)
(0.0639579 0.0297565 -2.16526e-20)
(0.20413 0.0197277 -1.12298e-20)
(0.38833 0.0129321 2.10463e-20)
(0.597625 0.0119059 3.19958e-20)
(0.81317 0.0174308 -1.0186e-20)
(1.01231 0.024846 0)
(1.21016 0.0393077 9.51986e-21)
(1.33367 0.0502163 0)
(-0.0294394 0.0222681 4.89735e-21)
(0.0171966 0.0188149 -5.60608e-21)
(0.153776 0.00865988 1.82974e-20)
(0.35768 0.00170557 2.95449e-20)
(0.599932 0.00302057 -7.84954e-22)
(0.847838 0.0120191 -1.09327e-20)
(1.07557 0.0257806 9.41962e-21)
(1.26866 0.0391005 9.71017e-21)
(1.42791 0.0542929 -9.51922e-21)
(1.5254 0.0559363 -1.84053e-20)
(-0.0193695 0.0148147 -3.5129e-21)
(0.0753139 3.24203e-05 3.29045e-21)
(0.280194 -0.0089262 -9.04133e-21)
(0.550806 -0.0064918 -1.30685e-21)
(0.835462 0.00682462 -9.72475e-21)
(1.09243 0.0256391 -9.8265e-21)
(1.30077 0.0443461 -9.81579e-21)
(1.45719 0.0588433 -9.70981e-21)
(1.56842 0.0689252 -9.7502e-21)
(1.64694 0.0703041 9.74172e-21)
(-0.000536605 0.00578387 -6.06372e-22)
(0.159487 -0.0176215 2.02557e-21)
(0.441544 -0.0180256 0)
(0.766231 -0.000952946 -9.63652e-21)
(1.06308 0.0241379 7.59324e-21)
(1.29665 0.0483574 0)
(1.4629 0.066647 0)
(1.57405 0.0770701 0)
(1.65042 0.0824687 9.75061e-21)
(1.69938 0.08012 -1.99277e-20)
(0.0293867 -0.00377797 4.97834e-22)
(0.271203 -0.0296666 -2.95606e-24)
(0.62713 -0.0137803 -1.61119e-21)
(0.978173 0.0188768 -4.10115e-21)
(1.25477 0.0510031 -3.40908e-21)
(1.44459 0.0746609 -4.12191e-21)
(1.56501 0.0882276 0)
(1.64136 0.0935962 -5.06661e-21)
(1.69382 0.0941547 2.68072e-20)
(1.73638 0.0889207 -3.62138e-20)
(0.0721349 -0.0119615 -4.22947e-21)
(0.407027 -0.0306421 1.60372e-21)
(0.818258 0.00606078 3.29081e-21)
(1.1633 0.0501725 -4.11135e-21)
(1.3985 0.0829525 1.09376e-20)
(1.54111 0.101669 -2.94588e-21)
(1.62487 0.109228 0)
(1.67849 0.109689 5.067e-21)
(1.72072 0.106387 -5.34571e-21)
(1.75972 0.100218 -2.4366e-20)
(0.128085 -0.0161764 0)
(0.557414 -0.0162411 0)
(0.995262 0.0403193 8.49183e-22)
(1.3096 0.0892141 -7.90519e-22)
(1.49682 0.117514 3.73817e-21)
(1.5989 0.129232 -3.50961e-21)
(1.65697 0.130659 -1.09932e-20)
(1.69802 0.126737 1.03912e-20)
(1.73527 0.120382 1.27289e-20)
(1.77377 0.113048 -6.06037e-21)
(0.195631 -0.0136415 3.03149e-21)
(0.708624 0.0149165 0)
(1.14474 0.0860119 7.92781e-22)
(1.41566 0.133255 -2.69258e-21)
(1.55773 0.153798 3.96121e-21)
(1.62868 0.157686 0)
(1.67043 0.153239 0)
(1.70497 0.145295 0)
(1.74081 0.136221 1.43197e-20)
(1.77968 0.127858 -1.36118e-20)
(0.270863 -0.00213525 -1.68445e-21)
(0.847081 0.0611682 -2.69229e-22)
(1.26086 0.139963 -4.53869e-22)
(1.48515 0.180473 -4.96286e-22)
(1.58904 0.191328 -4.4576e-22)
(1.63788 0.187207 -2.21787e-21)
(1.67 0.177177 0)
(1.70175 0.165444 1.97195e-21)
(1.73733 0.153928 1.02907e-20)
(1.77644 0.143893 -7.78044e-21)
(0.348077 0.0194147 0)
(0.962992 0.119055 -9.92409e-22)
(1.34271 0.199207 0)
(1.52305 0.229487 2.92429e-23)
(1.59689 0.229666 4.14678e-23)
(1.63092 0.217644 1.37542e-21)
(1.65786 0.202251 0)
(1.6887 0.186812 -1.97215e-21)
(1.72459 0.17279 -2.10499e-21)
(1.7642 0.160553 -2.42583e-21)
(-0.00663579 0.00656891 0)
(-0.0276225 0.0127292 2.03527e-21)
(-0.0585247 0.0152777 0)
(-0.0894615 0.0161502 2.52241e-21)
(-0.118337 0.0162809 7.56395e-22)
(-0.144959 0.0161879 -1.38887e-21)
(-0.169534 0.0161584 1.30798e-21)
(-0.192471 0.0163398 -1.1714e-21)
(-0.214339 0.0168306 -2.32641e-23)
(-0.235945 0.0177174 -9.92414e-22)
(-0.00782381 0.0188828 6.54686e-21)
(-0.0285482 0.0368176 -4.06091e-21)
(-0.0572405 0.044362 3.62023e-21)
(-0.0851687 0.0469303 -1.67622e-21)
(-0.110512 0.0472237 -7.5668e-21)
(-0.13309 0.0467729 2.82502e-21)
(-0.153087 0.0464504 0)
(-0.170841 0.0467395 1.16746e-21)
(-0.18678 0.0479699 1.06465e-21)
(-0.202095 0.0504132 0)
(-0.0100117 0.0289066 -4.36812e-21)
(-0.0304091 0.0570698 0)
(-0.055165 0.0692223 -1.07326e-20)
(-0.0776431 0.0733093 1.31178e-20)
(-0.096529 0.073499 -3.048e-21)
(-0.111725 0.072228 0)
(-0.12342 0.0709498 0)
(-0.131867 0.0705723 0)
(-0.137171 0.0717698 -8.33646e-21)
(-0.140826 0.0751068 7.92288e-21)
(-0.0128575 0.0357532 0)
(-0.0331719 0.0717568 7.60894e-21)
(-0.0530521 0.0877013 -1.40106e-20)
(-0.0684698 0.092938 6.4814e-21)
(-0.0788646 0.0926548 -5.86018e-21)
(-0.0843569 0.0899728 1.62767e-20)
(-0.0851996 0.0868242 -2.31008e-22)
(-0.0816917 0.0845551 -9.37731e-21)
(-0.073551 0.0843658 -8.45606e-21)
(-0.0612597 0.0877833 1.20736e-20)
(-0.0160379 0.0393118 -8.12775e-21)
(-0.0367181 0.0801351 1.47594e-20)
(-0.0514703 0.0985288 -5.70154e-23)
(-0.0589007 0.104267 7.09817e-23)
(-0.0593994 0.103098 -5.79145e-21)
(-0.0534637 0.0985397 1.63359e-20)
(-0.0414709 0.0927694 0)
(-0.0239072 0.0873026 4.73026e-21)
(-0.000299731 0.0839577 -4.44784e-21)
(0.0312396 0.0864166 1.58661e-20)
(-0.0193738 0.0401282 -1.71581e-22)
(-0.0407668 0.0824271 -1.44865e-20)
(-0.0503003 0.101382 -6.75495e-21)
(-0.0488423 0.106616 -6.09937e-21)
(-0.0377571 0.104099 -5.82889e-21)
(-0.0179977 0.0975144 -5.42562e-21)
(0.00984828 0.0890359 0)
(0.0450597 0.0800219 -4.72997e-21)
(0.0877734 0.0723277 -1.37039e-20)
(0.145761 0.0723061 4.09184e-21)
(-0.0228616 0.0391164 2.79274e-23)
(-0.0447198 0.0795669 -6.9114e-21)
(-0.0481827 0.0967936 0)
(-0.0358248 0.100148 1.25021e-20)
(-0.00974972 0.0957182 -1.15481e-20)
(0.0287229 0.0872574 0)
(0.0788027 0.0769496 0)
(0.139315 0.066026 0)
(0.206725 0.0545013 9.42427e-21)
(0.305797 0.0523386 1.68036e-20)
(-0.0265219 0.0371446 7.05838e-21)
(-0.0473751 0.0727675 -6.6118e-21)
(-0.0419443 0.0858986 -1.24997e-20)
(-0.0140748 0.0858894 1.88979e-22)
(0.0337572 0.0790144 -1.15521e-20)
(0.0997511 0.0691241 -1.10576e-20)
(0.182351 0.0585638 -1.05705e-20)
(0.279495 0.0491518 -1.01128e-20)
(0.378338 0.0366785 -9.42321e-21)
(0.533528 0.0370453 9.45978e-21)
(-0.0300711 0.034684 1.92231e-20)
(-0.0465054 0.0630369 6.74326e-21)
(-0.0261945 0.0701308 2.50082e-20)
(0.0257589 0.0657592 1.20795e-20)
(0.106328 0.056574 1.50514e-22)
(0.21207 0.0464839 1.12164e-20)
(0.338558 0.037883 -1.05422e-20)
(0.480036 0.033259 1.01115e-20)
(0.616354 0.0249666 -9.66594e-21)
(0.819325 0.0340117 1.84283e-20)
(-0.0327151 0.0317373 -1.25507e-20)
(-0.038577 0.0508266 0)
(0.00638767 0.0509185 -1.20032e-20)
(0.0950954 0.0425378 7.49007e-23)
(0.221991 0.0327037 3.63378e-22)
(0.378554 0.0251237 -1.11462e-20)
(0.554496 0.0220054 3.14596e-20)
(0.734572 0.0233869 0)
(0.911616 0.0255735 9.66447e-21)
(1.11023 0.0430367 0)
(-0.257745 0.018807 0)
(-0.281029 0.0187507 8.14643e-22)
(-0.30399 0.0183942 -1.57601e-21)
(-0.326588 0.0179086 6.70271e-22)
(-0.348705 0.0172818 0)
(-0.370143 0.0164971 -5.6325e-22)
(-0.390692 0.0155451 5.66041e-22)
(-0.410124 0.0144231 0)
(-0.42821 0.0131344 0)
(-0.444717 0.0116897 -3.94e-23)
(-0.459425 0.0101072 0)
(-0.47213 0.00841338 0)
(-0.482666 0.00664459 0)
(-0.490926 0.00484819 0)
(-0.496876 0.0030843 1.16469e-23)
(-0.500514 0.00142288 -1.17073e-23)
(-0.501822 -6.87792e-05 0)
(-0.500868 -0.00134468 1.32764e-24)
(-0.498474 -0.00242303 -1.33463e-24)
(-0.4968 -0.00319947 0)
(-0.218872 0.0535341 0)
(-0.239579 0.0536405 -2.08891e-22)
(-0.259945 0.0528835 0)
(-0.280166 0.0517593 -2.66352e-21)
(-0.300279 0.0502346 2.60285e-21)
(-0.32011 0.0482523 -1.46677e-22)
(-0.339469 0.0457771 9.66378e-22)
(-0.35815 0.0427913 -1.90523e-21)
(-0.375932 0.0392956 1.41803e-21)
(-0.392587 0.0353102 -7.21307e-22)
(-0.40788 0.0308767 -4.19133e-22)
(-0.421581 0.0260623 6.82618e-22)
(-0.433474 0.0209636 -3.04571e-22)
(-0.443387 0.0157128 -7.46522e-23)
(-0.451197 0.0104833 5.93834e-23)
(-0.456819 0.00549139 7.50517e-25)
(-0.460169 0.000968835 4.54738e-24)
(-0.461308 -0.00289893 2.80665e-24)
(-0.460865 -0.00606352 -2.82025e-24)
(-0.460287 -0.0082608 1.75062e-24)
(-0.148967 0.0800192 2.21929e-22)
(-0.164483 0.0807982 2.09258e-22)
(-0.179716 0.0803836 1.95886e-22)
(-0.195024 0.0794424 0)
(-0.210767 0.0779162 2.79362e-21)
(-0.226843 0.0756976 -2.18309e-21)
(-0.243104 0.0727089 0)
(-0.259398 0.0688991 2.18872e-22)
(-0.275557 0.0642427 9.21229e-23)
(-0.291389 0.0587402 -8.64813e-22)
(-0.306684 0.0524229 2.73168e-22)
(-0.321207 0.0453588 8.202e-22)
(-0.334712 0.0376627 2.0412e-23)
(-0.346951 0.0295122 1.54511e-23)
(-0.357687 0.0211603 -2.43445e-24)
(-0.36667 0.0129564 2.57943e-23)
(-0.373661 0.0053251 -9.09919e-24)
(-0.378632 -0.00129752 -3.51608e-23)
(-0.381901 -0.00652019 -1.57302e-23)
(-0.38367 -0.00985915 -1.28247e-24)
(-0.059108 0.0939135 6.71157e-21)
(-0.0678397 0.0959793 -4.38925e-22)
(-0.0761127 0.0966773 -6.86152e-22)
(-0.08446 0.0967495 -6.06664e-21)
(-0.0936283 0.0961873 -4.97911e-22)
(-0.103663 0.0948219 -1.45878e-22)
(-0.114471 0.0925178 3.49537e-21)
(-0.125975 0.089187 -2.30948e-21)
(-0.138097 0.0847693 -1.56823e-21)
(-0.150744 0.0792243 1.01479e-21)
(-0.163799 0.0725383 -2.91138e-22)
(-0.177114 0.0647303 -7.58664e-22)
(-0.190499 0.0558643 -2.02424e-23)
(-0.203731 0.0460944 9.46979e-24)
(-0.216552 0.03565 -9.76438e-24)
(-0.228639 0.0249072 -1.23925e-22)
(-0.239596 0.0144194 9.5377e-23)
(-0.249154 0.00491225 0)
(-0.257298 -0.00264004 4.37977e-23)
(-0.262924 -0.00713522 4.7814e-24)
(0.0438933 0.0939252 -1.54916e-20)
(0.0426833 0.0978534 6.27672e-21)
(0.0409471 0.0999366 -6.7291e-21)
(0.0398107 0.101355 0)
(0.0380152 0.102283 3.34141e-22)
(0.0351492 0.102459 4.50653e-21)
(0.0312416 0.10165 -3.93263e-22)
(0.0263314 0.0997405 -6.65355e-22)
(0.0204051 0.0966564 -3.20824e-21)
(0.0134383 0.0923282 -1.37304e-22)
(0.0054178 0.0866983 0)
(-0.00366048 0.0797366 6.26334e-23)
(-0.0137293 0.0714617 0)
(-0.0246985 0.0619344 2.63526e-24)
(-0.036475 0.0512702 0)
(-0.0488554 0.0397023 0)
(-0.0615083 0.027661 4.10327e-23)
(-0.0740727 0.0158715 -8.54872e-23)
(-0.0865197 0.00565889 8.1573e-23)
(-0.0972025 -0.000696083 -2.93255e-23)
(0.16649 0.0825533 0)
(0.17108 0.0887132 4.43922e-22)
(0.173319 0.0919751 1.31224e-20)
(0.177193 0.094493 -1.27158e-20)
(0.181284 0.0968405 3.69564e-22)
(0.184529 0.0986112 0)
(0.186847 0.099439 4.1058e-21)
(0.188316 0.0991983 -7.27904e-21)
(0.188872 0.0978306 3.62201e-21)
(0.18838 0.0952505 1.58511e-22)
(0.186714 0.0913691 1.15506e-22)
(0.183771 0.0861292 7.46129e-23)
(0.179463 0.0795324 0)
(0.173718 0.0715884 1.1413e-22)
(0.16647 0.0623622 -4.15126e-22)
(0.157699 0.0519721 2.82856e-22)
(0.147461 0.040635 -5.1888e-23)
(0.135939 0.0286973 -5.23057e-23)
(0.122966 0.0170037 3.22401e-23)
(0.108935 0.00823292 -3.26028e-23)
(0.329508 0.0659372 -1.73608e-20)
(0.335489 0.0740764 0)
(0.337238 0.0777785 4.56678e-22)
(0.341909 0.0808121 -8.36431e-22)
(0.348251 0.0841254 -7.62665e-22)
(0.354401 0.0870009 -3.52621e-22)
(0.360094 0.0889675 -3.10999e-22)
(0.365502 0.0899741 3.49298e-21)
(0.370545 0.0900063 -4.15417e-21)
(0.37499 0.0889654 -2.65168e-21)
(0.378619 0.0867421 2.1974e-21)
(0.381251 0.0832608 -1.65258e-22)
(0.382704 0.0784992 2.09698e-22)
(0.382807 0.0724588 -2.47973e-22)
(0.381365 0.0652053 6.68456e-23)
(0.378233 0.0568273 3.15304e-23)
(0.373207 0.0475331 -1.0463e-22)
(0.36624 0.0374961 6.77413e-23)
(0.35726 0.0271502 2.19347e-22)
(0.344469 0.0172483 1.81887e-23)
(0.552332 0.0529369 0)
(0.554886 0.0613283 1.53382e-20)
(0.552279 0.0638049 -1.57292e-20)
(0.553784 0.0664548 4.31123e-22)
(0.558338 0.0699997 8.09376e-22)
(0.563508 0.0730896 3.52315e-22)
(0.568916 0.0753016 6.44046e-22)
(0.574804 0.0767771 0)
(0.581058 0.0775273 2.21358e-22)
(0.587374 0.0774042 1.76301e-22)
(0.593477 0.0762777 1.54856e-22)
(0.599163 0.0740565 2.02129e-22)
(0.60418 0.0707182 0)
(0.608332 0.0662369 0)
(0.611308 0.0607086 -1.02162e-23)
(0.612968 0.0541664 -2.95817e-22)
(0.612932 0.046952 2.05148e-22)
(0.611041 0.0390204 -3.51018e-23)
(0.607561 0.031576 -1.15855e-22)
(0.599587 0.0226011 3.16298e-23)
(0.828329 0.0514206 -1.91943e-20)
(0.826026 0.0567463 0)
(0.82015 0.0562887 0)
(0.818885 0.0580631 1.43497e-20)
(0.820609 0.0609208 -1.57874e-21)
(0.823074 0.0629763 -2.47447e-20)
(0.826153 0.0642611 1.13372e-20)
(0.83012 0.0651296 0)
(0.834806 0.0655641 0)
(0.839958 0.0653825 0)
(0.845336 0.0644765 -6.32908e-23)
(0.850827 0.0627351 -1.77813e-22)
(0.856152 0.0601562 -1.01612e-21)
(0.861214 0.0566387 9.79921e-22)
(0.86558 0.0523647 -3.27374e-23)
(0.86927 0.0471739 4.81247e-23)
(0.871704 0.0417379 0)
(0.872941 0.035368 2.35641e-23)
(0.872918 0.0304134 2.85815e-23)
(0.86989 0.0232556 0)
(1.12515 0.053867 2.76185e-22)
(1.1273 0.0511519 1.65866e-20)
(1.12623 0.0497741 -1.64143e-20)
(1.12637 0.0523716 0)
(1.12618 0.0552856 -1.37608e-20)
(1.12546 0.0573398 2.61547e-20)
(1.12497 0.0588954 -1.24073e-20)
(1.12518 0.0600573 0)
(1.12601 0.0606769 -4.16235e-21)
(1.12744 0.0605764 7.55063e-21)
(1.12932 0.0597371 -3.48393e-21)
(1.13171 0.0580405 6.65772e-23)
(1.13431 0.0555998 0)
(1.1372 0.0522233 8.95742e-22)
(1.13985 0.0483269 -1.06694e-21)
(1.14251 0.0434635 2.06016e-22)
(1.14438 0.0388049 -6.87454e-23)
(1.14591 0.0329886 2.37636e-23)
(1.14644 0.0291612 5.39752e-23)
(1.14588 0.0230892 0)
(1.46085 0.058589 0)
(1.44123 0.0551873 0)
(1.42829 0.0538868 0)
(1.41797 0.0540376 0)
(1.40896 0.0545073 0)
(1.40142 0.0549827 0)
(1.39553 0.0554006 0)
(1.39126 0.0555867 0)
(1.38827 0.0554572 0)
(1.3864 0.0548502 0)
(1.38536 0.053805 0)
(1.38515 0.0521083 0)
(1.38536 0.0499795 0)
(1.38614 0.047052 0)
(1.38689 0.0439464 0)
(1.38791 0.0398799 0)
(1.38849 0.0363481 0)
(1.38898 0.0314977 0)
(1.38898 0.0287391 0)
(1.3882 0.023652 0)
(1.61316 0.0655115 0)
(1.60768 0.0659888 0)
(1.6046 0.0657231 0)
(1.60185 0.0648766 0)
(1.59876 0.063937 0)
(1.59577 0.063047 0)
(1.59327 0.0621726 0)
(1.59144 0.0611267 0)
(1.59017 0.0598877 0)
(1.58946 0.058268 0)
(1.5891 0.0563845 0)
(1.58917 0.0539491 0)
(1.58938 0.0513089 0)
(1.58985 0.0479489 0)
(1.59019 0.0446917 0)
(1.59056 0.0405048 0)
(1.59062 0.0371493 0)
(1.59033 0.0324476 0)
(1.59 0.0299986 0)
(1.5885 0.0252069 0)
(1.71802 0.067098 0)
(1.71773 0.0667726 0)
(1.7186 0.0663659 0)
(1.72011 0.0654062 0)
(1.72169 0.0642939 0)
(1.72332 0.0632065 0)
(1.72508 0.0621538 0)
(1.72708 0.0609213 0)
(1.72922 0.0595216 0)
(1.73151 0.0577264 0)
(1.73378 0.0557344 0)
(1.7361 0.0531933 0)
(1.73823 0.0505737 0)
(1.74031 0.0472386 0)
(1.74201 0.0441752 0)
(1.74353 0.0401668 0)
(1.74454 0.037154 0)
(1.74523 0.0327578 0)
(1.74551 0.0306519 0)
(1.74523 0.0262152 0)
(1.79706 0.0665444 0)
(1.79971 0.0647952 0)
(1.80249 0.0635563 0)
(1.80586 0.0622437 0)
(1.80967 0.0609214 0)
(1.81372 0.0596355 0)
(1.81792 0.0584314 0)
(1.82226 0.0570954 0)
(1.82666 0.0556742 0)
(1.83112 0.0538987 0)
(1.83545 0.0520176 0)
(1.83974 0.0496257 0)
(1.84368 0.0472654 0)
(1.84752 0.0442244 0)
(1.85076 0.0415623 0)
(1.85394 0.0379808 0)
(1.85619 0.0354448 0)
(1.85863 0.0315588 0)
(1.85973 0.0298431 0)
(1.86167 0.0259161 0)
(1.86388 0.0639581 0)
(1.86827 0.0612678 0)
(1.87237 0.0593334 0)
(1.87679 0.0576928 0)
(1.88162 0.0561905 0)
(1.88677 0.0547259 0)
(1.89206 0.0533594 0)
(1.89749 0.0519016 0)
(1.90292 0.0504402 0)
(1.90843 0.0486905 0)
(1.91376 0.0469236 0)
(1.9191 0.0447119 0)
(1.92401 0.0426169 0)
(1.92896 0.0399107 0)
(1.93312 0.0376383 0)
(1.93754 0.0345221 0)
(1.94061 0.032421 0)
(1.94456 0.0290735 0)
(1.94623 0.0276881 0)
(1.95017 0.0242871 0)
(1.9289 0.0597925 0)
(1.93416 0.0567018 0)
(1.93901 0.0543663 0)
(1.94392 0.0524715 0)
(1.94909 0.0508178 0)
(1.95456 0.0492214 0)
(1.96015 0.0477337 0)
(1.96587 0.0461845 0)
(1.97156 0.0446909 0)
(1.97734 0.0429739 0)
(1.98289 0.0413063 0)
(1.98856 0.0392662 0)
(1.99371 0.0373958 0)
(1.99909 0.0349978 0)
(2.00353 0.0330471 0)
(2.00856 0.0303532 0)
(2.01193 0.0286001 0)
(2.01677 0.0257383 0)
(2.01867 0.0246049 0)
(2.02388 0.0216851 0)
(1.99745 0.0549036 0)
(2.00301 0.0517568 0)
(2.00813 0.0492334 0)
(2.01312 0.0471503 0)
(2.01823 0.045362 0)
(2.02356 0.0436652 0)
(2.02899 0.0420957 0)
(2.03455 0.0404903 0)
(2.04003 0.0389789 0)
(2.04563 0.0373001 0)
(2.05096 0.035717 0)
(2.05648 0.0338298 0)
(2.06144 0.0321423 0)
(2.06676 0.0300087 0)
(2.07106 0.0283135 0)
(2.07618 0.0259764 0)
(2.07949 0.024493 0)
(2.08462 0.0220401 0)
(2.08651 0.0210972 0)
(2.09222 0.0185915 0)
(2.07057 0.0498794 0)
(2.07608 0.046817 0)
(2.08118 0.0442313 0)
(2.08607 0.0420337 0)
(2.09093 0.0401477 0)
(2.09594 0.038385 0)
(2.10099 0.0367697 0)
(2.10618 0.0351416 0)
(2.11125 0.0336304 0)
(2.11644 0.0319964 0)
(2.12133 0.0304882 0)
(2.12644 0.0287357 0)
(2.13099 0.0271983 0)
(2.13597 0.0252871 0)
(2.13991 0.023795 0)
(2.14479 0.0217515 0)
(2.14784 0.0204783 0)
(2.15284 0.0183603 0)
(2.15459 0.0175641 0)
(2.16024 0.0154033 0)
(2.14686 0.0449079 0)
(2.1522 0.0419792 0)
(2.15718 0.0394223 0)
(2.1619 0.0371949 0)
(2.16649 0.0352703 0)
(2.17114 0.0334863 0)
(2.17579 0.0318642 0)
(2.18054 0.0302478 0)
(2.18514 0.0287608 0)
(2.18985 0.0271845 0)
(2.19425 0.0257517 0)
(2.19887 0.0241233 0)
(2.20293 0.0227164 0)
(2.20744 0.0209958 0)
(2.21095 0.0196711 0)
(2.21541 0.0178718 0)
(2.21813 0.0167669 0)
(2.22274 0.0149249 0)
(2.22431 0.0142447 0)
(2.22956 0.0123721 0)
(2.224 0.0399878 0)
(2.22918 0.0372348 0)
(2.23404 0.034784 0)
(2.23861 0.0326086 0)
(2.24297 0.0307111 0)
(2.24732 0.0289561 0)
(2.2516 0.0273679 0)
(2.25594 0.0257989 0)
(2.26012 0.0243642 0)
(2.26437 0.0228645 0)
(2.26831 0.0215163 0)
(2.27244 0.020011 0)
(2.27604 0.0187262 0)
(2.28005 0.0171771 0)
(2.28315 0.0159983 0)
(2.28712 0.0144095 0)
(2.2895 0.0134457 0)
(2.29363 0.0118387 0)
(2.295 0.0112535 0)
(2.29969 0.00962917 0)
(2.29953 0.0350859 0)
(2.3046 0.032556 0)
(2.30938 0.0302724 0)
(2.31385 0.0282156 0)
(2.31806 0.0264052 0)
(2.32217 0.0247288 0)
(2.32618 0.0232156 0)
(2.33018 0.0217294 0)
(2.33401 0.0203769 0)
(2.33787 0.0189769 0)
(2.34143 0.0177284 0)
(2.34512 0.0163529 0)
(2.34833 0.0151905 0)
(2.35188 0.0138053 0)
(2.35461 0.0127611 0)
(2.3581 0.0113639 0)
(2.36019 0.0105245 0)
(2.3638 0.00912735 0)
(2.365 0.00862382 0)
(2.36908 0.00722294 0)
(2.37129 0.0301648 0)
(2.37632 0.0278995 0)
(2.38106 0.0258281 0)
(2.38547 0.0239419 0)
(2.38959 0.0222701 0)
(2.39355 0.020719 0)
(2.39736 0.0193208 0)
(2.40111 0.0179532 0)
(2.40467 0.0167131 0)
(2.40821 0.0154381 0)
(2.41146 0.0143081 0)
(2.41478 0.0130753 0)
(2.41767 0.0120416 0)
(2.42081 0.0108213 0)
(2.42325 0.00990853 0)
(2.42629 0.00869534 0)
(2.42814 0.0079717 0)
(2.43125 0.00677216 0)
(2.43231 0.00634261 0)
(2.4358 0.00515234 0)
(2.43801 0.025204 0)
(2.44295 0.0232335 0)
(2.44765 0.02141 0)
(2.452 0.0197359 0)
(2.45604 0.0182461 0)
(2.45986 0.0168622 0)
(2.4635 0.0156163 0)
(2.46702 0.0144008 0)
(2.47036 0.013302 0)
(2.47361 0.0121777 0)
(2.4766 0.0111859 0)
(2.47959 0.0101118 0)
(2.48221 0.00921652 0)
(2.48498 0.00816805 0)
(2.48716 0.0073881 0)
(2.48979 0.00635899 0)
(2.49142 0.00574766 0)
(2.49407 0.00474207 0)
(2.49499 0.00438245 0)
(2.49793 0.00339791 0)
(2.49924 0.0202696 0)
(2.50396 0.0186134 0)
(2.50848 0.0170644 0)
(2.51267 0.0156332 0)
(2.51654 0.0143575 0)
(2.52014 0.0131726 0)
(2.52355 0.0121078 0)
(2.5268 0.0110712 0)
(2.52987 0.0101366 0)
(2.5328 0.00918369 0)
(2.53552 0.00834617 0)
(2.53815 0.00744453 0)
(2.54049 0.00669623 0)
(2.54287 0.00582646 0)
(2.54478 0.00518146 0)
(2.54699 0.0043381 0)
(2.54841 0.00383724 0)
(2.55058 0.00302409 0)
(2.55138 0.00273175 0)
(2.55374 0.00194956 0)
(2.55472 0.0155723 0)
(2.55898 0.0142326 0)
(2.56312 0.012968 0)
(2.56693 0.0117934 0)
(2.57046 0.0107458 0)
(2.57369 0.00977441 0)
(2.57673 0.00890395 0)
(2.57957 0.00805854 0)
(2.58226 0.00729831 0)
(2.58478 0.00652582 0)
(2.58713 0.00584894 0)
(2.58933 0.00512448 0)
(2.59132 0.00452491 0)
(2.59326 0.00383384 0)
(2.59487 0.00332161 0)
(2.5966 0.00266008 0)
(2.59778 0.00226548 0)
(2.59943 0.00163796 0)
(2.60009 0.0014093 0)
(2.60184 0.000819807 0)
(2.60336 0.0113997 0)
(2.60696 0.0103563 0)
(2.6105 0.00936399 0)
(2.61376 0.00843793 0)
(2.61677 0.00761256 0)
(2.61947 0.00684932 0)
(2.622 0.00616806 0)
(2.62432 0.00550857 0)
(2.62652 0.00491725 0)
(2.62853 0.00431897 0)
(2.63042 0.00379622 0)
(2.63212 0.00324072 0)
(2.6337 0.00278175 0)
(2.63513 0.00225838 0)
(2.63638 0.00186958 0)
(2.63761 0.00137595 0)
(2.63851 0.0010787 0)
(2.63961 0.000619925 0)
(2.6401 0.00044905 0)
(2.64123 3.14691e-05 0)
(2.64333 0.00791527 0)
(2.64621 0.00713536 0)
(2.64909 0.00639135 0)
(2.65174 0.0056959 0)
(2.65415 0.00507742 0)
(2.65628 0.00450763 0)
(2.65825 0.00400102 0)
(2.66001 0.00351236 0)
(2.66169 0.0030754 0)
(2.66315 0.00263557 0)
(2.66456 0.00225228 0)
(2.66575 0.00184857 0)
(2.66689 0.00151523 0)
(2.66782 0.00114018 0)
(2.6687 0.000860444 0)
(2.66942 0.000512662 0)
(2.67004 0.000300371 0)
(2.67061 -1.47652e-05 0)
(2.67094 -0.000135708 0)
(2.67146 -0.000411567 0)
(2.67331 0.00507831 0)
(2.67557 0.00452949 0)
(2.67787 0.00401029 0)
(2.67995 0.00352909 0)
(2.68185 0.0031047 0)
(2.68345 0.00271587 0)
(2.68492 0.00237153 0)
(2.68617 0.00203999 0)
(2.68738 0.00174404 0)
(2.68836 0.00144725 0)
(2.68934 0.0011892 0)
(2.69007 0.000919489 0)
(2.69082 0.000696932 0)
(2.69132 0.000449627 0)
(2.69187 0.000264457 0)
(2.69215 3.91722e-05 0)
(2.69251 -0.000100242 0)
(2.69263 -0.000299027 0)
(2.69281 -0.000378011 0)
(2.69283 -0.000544383 0)
(2.69317 0.00286608 0)
(2.69496 0.0025046 0)
(2.69682 0.00217562 0)
(2.69849 0.0018819 0)
(2.69998 0.00163003 0)
(2.70118 0.00140307 0)
(2.70227 0.00120413 0)
(2.70313 0.00101318 0)
(2.70398 0.000843424 0)
(2.7046 0.000673476 0)
(2.70525 0.000526521 0)
(2.70563 0.000373457 0)
(2.70609 0.000247781 0)
(2.70626 0.000109034 0)
(2.70656 4.99584e-06 0)
(2.70652 -0.000119313 0)
(2.70669 -0.000196692 0)
(2.70648 -0.000303972 0)
(2.70655 -0.000347677 0)
(2.70619 -0.0004333 0)
(2.70308 0.00110752 0)
(2.70462 0.000937696 0)
(2.70624 0.000791739 0)
(2.70768 0.000668346 0)
(2.70896 0.000566613 0)
(2.70994 0.000478179 0)
(2.71081 0.000402542 0)
(2.71146 0.00033184 0)
(2.71211 0.000270063 0)
(2.71253 0.000209523 0)
(2.71299 0.000157899 0)
(2.71319 0.000105088 0)
(2.71349 6.21475e-05 0)
(2.71347 1.55234e-05 0)
(2.71363 -1.94578e-05 0)
(2.71343 -6.03086e-05 0)
(2.71349 -8.57822e-05 0)
(2.7131 -0.000120324 0)
(2.71311 -0.000134574 0)
(2.71256 -0.00016129 0)
(1.80671 0.145996 2.37026e-21)
(1.81838 0.134748 0)
(1.82096 0.123426 -4.46927e-22)
(1.81622 0.112344 -1.3565e-20)
(1.80218 0.101812 2.35917e-20)
(1.78407 0.0928001 0)
(1.75436 0.0836611 2.05727e-20)
(1.71413 0.0794033 0)
(1.67479 0.067459 1.92397e-20)
(1.49006 0.0588875 -2.87283e-22)
(1.85608 0.134083 -2.64137e-21)
(1.86622 0.124886 5.39647e-22)
(1.8678 0.115332 -5.40734e-22)
(1.86206 0.107241 -9.93754e-22)
(1.84983 0.0982006 -1.28538e-20)
(1.82807 0.092825 -7.88506e-22)
(1.81385 0.0845693 0)
(1.75799 0.0823559 -2.08304e-20)
(1.77297 0.0774983 0)
(1.6206 0.0659969 -1.79077e-20)
(1.91175 0.122154 5.41471e-21)
(1.91886 0.114675 0)
(1.92144 0.106025 -5.14034e-22)
(1.91086 0.0999522 -4.19291e-22)
(1.90482 0.0920642 1.3659e-20)
(1.87212 0.0882837 0)
(1.87424 0.0826979 2.35522e-20)
(1.80384 0.078673 2.1435e-20)
(1.83145 0.0787178 0)
(1.71882 0.0696597 1.77237e-20)
(1.97158 0.11135 -2.4389e-21)
(1.97477 0.10504 1.00114e-20)
(1.98072 0.0975374 0)
(1.9638 0.0922968 1.60807e-20)
(1.96495 0.0861326 8.91327e-22)
(1.92294 0.081673 -1.70532e-21)
(1.93161 0.0787493 -2.26392e-20)
(1.86057 0.0730033 -7.4443e-22)
(1.87779 0.0739763 -2.19725e-20)
(1.79382 0.0698524 0)
(2.03352 0.101553 0)
(2.0333 0.0958878 -9.76289e-21)
(2.04264 0.0899247 -1.09818e-20)
(2.02172 0.0847199 1.60822e-21)
(2.0266 0.0804394 -1.03716e-21)
(1.98266 0.0751421 -8.59664e-22)
(1.98833 0.0735387 -2.54384e-20)
(1.92554 0.0684645 -1.51031e-21)
(1.92979 0.0681218 -3.6945e-22)
(1.85885 0.0675288 2.06937e-20)
(2.09575 0.0924267 3.05577e-21)
(2.09391 0.0871557 6.55554e-22)
(2.10474 0.0826147 -1.59295e-21)
(2.08378 0.077476 5.95509e-22)
(2.08845 0.0744106 -1.69133e-20)
(2.04847 0.0694512 0)
(2.04854 0.0678132 2.78501e-20)
(1.99407 0.0646743 -8.24228e-22)
(1.99117 0.0626701 4.65357e-20)
(1.92336 0.063491 -4.20378e-20)
(2.15691 0.0836795 -3.0708e-21)
(2.1553 0.0789001 -5.73627e-21)
(2.16595 0.0752736 1.0199e-20)
(2.14761 0.0707002 -1.80348e-20)
(2.15079 0.068018 -1.75774e-21)
(2.11626 0.0642514 -1.5995e-20)
(2.11324 0.0619738 8.59965e-22)
(2.06376 0.0603881 -1.64444e-21)
(2.0593 0.0573795 -2.28404e-20)
(1.99184 0.0585043 2.13376e-20)
(2.21613 0.0751269 0)
(2.21565 0.0710484 1.23555e-20)
(2.2258 0.0678781 -1.33792e-21)
(2.21065 0.0642279 9.95998e-21)
(2.2134 0.0615154 -5.74089e-22)
(2.18326 0.0589627 3.15847e-20)
(2.18053 0.0561832 -1.4256e-20)
(2.13403 0.0553794 0)
(2.13106 0.052171 0)
(2.06506 0.0532535 0)
(2.27281 0.0667234 0)
(2.27345 0.0634267 -1.12403e-20)
(2.28366 0.0605224 -7.16569e-22)
(2.27114 0.0577911 9.92641e-21)
(2.27498 0.0550748 1.81966e-20)
(2.24812 0.0533606 -1.7581e-20)
(2.24771 0.0505259 1.7128e-20)
(2.20432 0.0500625 -9.19606e-22)
(2.20382 0.0471173 0)
(2.14154 0.048061 1.19802e-20)
(2.32657 0.0584761 3.99231e-22)
(2.32801 0.0558823 6.40354e-21)
(2.33879 0.0532626 9.97219e-21)
(2.3283 0.0512409 -5.70133e-22)
(2.33399 0.0487254 1.23564e-21)
(2.31012 0.0475167 -1.86364e-20)
(2.31254 0.0449776 1.81617e-20)
(2.27331 0.0446922 -9.46754e-22)
(2.27523 0.0421237 0)
(2.21886 0.0429286 -2.41864e-20)
(2.37749 0.0504169 0)
(2.37945 0.0483706 6.29172e-21)
(2.39082 0.0461095 1.98454e-22)
(2.38208 0.0445798 0)
(2.38945 0.0424252 0)
(2.36879 0.0415369 1.65133e-20)
(2.37353 0.0394176 -1.50714e-20)
(2.33949 0.039257 -8.99523e-22)
(2.34326 0.0370398 4.76624e-22)
(2.29448 0.037775 1.26087e-20)
(2.42615 0.0426634 0)
(2.42851 0.0409998 -1.19568e-20)
(2.44003 0.0391199 -1.31435e-20)
(2.433 0.0379245 2.00782e-21)
(2.44127 0.0361651 -1.29242e-21)
(2.42407 0.035499 -1.09954e-21)
(2.43013 0.0337663 2.0919e-21)
(2.40182 0.0337154 1.35357e-20)
(2.40665 0.0318117 1.32747e-21)
(2.36627 0.0325507 -4.13396e-22)
(2.47336 0.0352021 0)
(2.47603 0.0338816 6.43288e-21)
(2.48705 0.0323819 -7.21732e-22)
(2.48171 0.0314369 7.15773e-22)
(2.49 0.0300229 0)
(2.47627 0.0295204 0)
(2.48264 0.028089 0)
(2.46002 0.0281311 -1.5378e-20)
(2.46518 0.0265051 1.44152e-20)
(2.43304 0.0272549 0)
(2.51941 0.0282474 0)
(2.52225 0.0272472 4.09055e-21)
(2.53217 0.0260867 5.32443e-21)
(2.52844 0.0253373 6.99355e-21)
(2.53604 0.0241923 -1.33755e-21)
(2.52561 0.0238007 8.38903e-21)
(2.53158 0.0225959 -7.62085e-21)
(2.51422 0.0226766 0)
(2.51916 0.0212934 7.29921e-22)
(2.49448 0.0219759 -1.37164e-20)
(2.56288 0.02218 -8.96912e-22)
(2.56583 0.0214007 -3.31306e-21)
(2.57432 0.0204959 -6.88131e-21)
(2.57214 0.0198807 -4.91869e-21)
(2.57875 0.0189401 0)
(2.5714 0.0185966 -1.06891e-20)
(2.57666 0.0175763 1.09237e-20)
(2.56406 0.0176075 -1.03908e-21)
(2.56848 0.0164449 -7.12662e-21)
(2.55042 0.0169436 1.9878e-20)
(2.60098 0.0170245 9.01516e-22)
(2.60413 0.0164079 -2.56072e-21)
(2.61125 0.0157075 2.32329e-21)
(2.61062 0.0151883 -5.78253e-21)
(2.61623 0.0144273 0)
(2.6118 0.0140886 0)
(2.6163 0.0132453 1.07433e-21)
(2.60806 0.0131656 -1.01813e-20)
(2.61185 0.0122166 -6.36994e-21)
(2.59975 0.0124657 -6.64876e-21)
(2.63137 0.0125921 0)
(2.63492 0.012121 4.21317e-21)
(2.64093 0.0116057 -1.56033e-21)
(2.6418 0.0111793 5.14374e-21)
(2.64658 0.0105976 1.38525e-21)
(2.64479 0.0102666 -1.18694e-21)
(2.6486 0.00960638 2.24389e-21)
(2.64422 0.00942537 7.05864e-21)
(2.64736 0.00868455 0)
(2.64046 0.00871516 0)
(2.65392 0.00860621 0)
(2.65788 0.00830577 1.71706e-21)
(2.66304 0.00798353 -3.17369e-21)
(2.66514 0.00768127 0)
(2.66922 0.00728737 -2.7064e-21)
(2.66953 0.00700536 -1.19632e-21)
(2.67273 0.00653072 -3.35895e-21)
(2.67138 0.00630529 -9.92611e-22)
(2.67394 0.00575936 5.126e-22)
(2.6711 0.00564812 4.36567e-22)
(2.66974 0.00491521 0)
(2.67383 0.00482149 -1.72529e-21)
(2.67827 0.00471581 -1.57766e-21)
(2.68109 0.00459156 2.1964e-21)
(2.68459 0.00440747 1.30574e-21)
(2.68623 0.00424229 1.24443e-21)
(2.68894 0.00396612 5.61107e-21)
(2.68955 0.00377746 -4.11894e-21)
(2.69164 0.0034187 9.62719e-22)
(2.69144 0.00324992 0)
(2.67846 0.00143007 0)
(2.68245 0.00151782 8.4687e-22)
(2.68643 0.00159819 -8.12714e-22)
(2.68949 0.0016553 7.7238e-22)
(2.69263 0.00167532 0)
(2.69485 0.00167316 -1.2506e-21)
(2.69725 0.0016144 1.10336e-21)
(2.69877 0.00154997 9.93067e-22)
(2.70057 0.00141185 0)
(2.70163 0.0012977 0)
(1.16163 0.250995 0)
(1.10535 0.273696 -5.9425e-20)
(1.06049 0.304243 0)
(1.02394 0.343628 -1.97365e-19)
(0.991815 0.391358 7.44504e-20)
(0.961926 0.449228 2.22389e-21)
(0.931376 0.517834 6.63204e-20)
(0.881964 0.585571 -7.34604e-21)
(0.751755 0.594995 0)
(0.419084 0.364834 6.90787e-20)
(1.24908 0.254024 1.08829e-19)
(1.1946 0.283035 5.94235e-20)
(1.15058 0.312377 -5.70928e-20)
(1.11389 0.350495 6.63909e-20)
(1.08268 0.398046 -5.79413e-20)
(1.05591 0.45577 7.47352e-21)
(1.03005 0.523615 -6.81819e-20)
(0.983845 0.588934 -1.36176e-19)
(0.845736 0.593537 -3.61967e-20)
(0.471182 0.357279 -1.01338e-19)
(1.33145 0.253026 -4.88335e-20)
(1.28176 0.284236 5.06818e-20)
(1.2396 0.312968 5.70908e-20)
(1.20273 0.350191 5.87138e-20)
(1.17208 0.397121 6.01734e-20)
(1.14807 0.453807 6.11839e-20)
(1.1263 0.519468 8.86689e-21)
(1.08189 0.580106 5.98373e-20)
(0.933588 0.577792 2.38786e-20)
(0.516105 0.338921 -2.54899e-20)
(1.41143 0.249411 9.75257e-20)
(1.36524 0.280929 -5.06794e-20)
(1.32468 0.308716 0)
(1.28806 0.344458 0)
(1.25822 0.389662 0)
(1.23665 0.444005 4.72296e-20)
(1.21793 0.505872 -4.17061e-20)
(1.17305 0.559448 0)
(1.01137 0.548143 1.77024e-20)
(0.550287 0.310358 -3.62427e-20)
(1.48692 0.242857 -1.88296e-20)
(1.44283 0.273388 6.71315e-20)
(1.40352 0.299999 0)
(1.3677 0.33385 0)
(1.33907 0.376391 2.00103e-20)
(1.31965 0.427159 1.91775e-20)
(1.3026 0.483694 2.60454e-20)
(1.25429 0.527803 1.48847e-20)
(1.07479 0.505704 2.28498e-20)
(0.570539 0.273357 -4.38559e-21)
(1.55519 0.23377 5.55334e-20)