/*--------------------------------*- C++ -*----------------------------------*\
| =========                 |                                                 |
| \\      /  F ield         | OpenFOAM: The Open Source CFD Toolbox           |
|  \\    /   O peration     | Version:  4.1                                   |
|   \\  /    A nd           | Web:      www.OpenFOAM.org                      |
|    \\/     M anipulation  |                                                 |
\*---------------------------------------------------------------------------*/
FoamFile
{
    version     2.0;
    format      ascii;
    class       volScalarField;
    location    "6.4";
    object      p;
}
// * * * * * * * * * * * * * * * * * * * * * * * * * * * * * * * * * * * * * //

dimensions      [0 2 -2 0 0 0 0];

internalField   nonuniform List<scalar> 
2000
(
-0.443142
-0.431167
-0.420412
-0.41039
-0.400672
-0.390054
-0.377164
-0.362026
-0.34238
-0.323412
-0.46597
-0.450395
-0.437101
-0.42412
-0.410091
-0.39383
-0.374828
-0.353421
-0.32954
-0.306586
-0.493355
-0.47353
-0.457081
-0.439843
-0.419604
-0.3961
-0.370096
-0.342835
-0.314907
-0.288179
-0.525278
-0.50037
-0.479817
-0.456307
-0.4277
-0.395656
-0.362436
-0.329737
-0.298246
-0.26984
-0.560549
-0.530012
-0.503862
-0.471473
-0.432527
-0.391276
-0.351026
-0.313371
-0.2789
-0.248213
-0.597323
-0.560768
-0.526603
-0.482635
-0.432108
-0.381688
-0.334943
-0.292943
-0.255701
-0.222952
-0.632349
-0.589904
-0.544566
-0.486883
-0.424565
-0.36566
-0.313201
-0.267417
-0.22768
-0.192807
-0.661448
-0.613451
-0.55413
-0.481668
-0.408276
-0.342025
-0.284793
-0.235873
-0.193904
-0.157131
-0.680266
-0.626735
-0.55191
-0.464964
-0.381904
-0.309697
-0.24876
-0.197453
-0.153738
-0.115557
-0.684922
-0.625447
-0.534931
-0.435203
-0.344402
-0.267759
-0.204237
-0.151395
-0.106658
-0.0679362
-0.336409
-0.342644
-0.345307
-0.347256
-0.348759
-0.349381
-0.348751
-0.346611
-0.342908
-0.337919
-0.340294
-0.345951
-0.348439
-0.350413
-0.352032
-0.352827
-0.352395
-0.350394
-0.346647
-0.341729
-0.347397
-0.351903
-0.354029
-0.355927
-0.357628
-0.358616
-0.358425
-0.356618
-0.35277
-0.347522
-0.356532
-0.359488
-0.36095
-0.362497
-0.364052
-0.365061
-0.364981
-0.363354
-0.359532
-0.352534
-0.366543
-0.367732
-0.368148
-0.368913
-0.369924
-0.370641
-0.370414
-0.368691
-0.364597
-0.356141
-0.376681
-0.376021
-0.375017
-0.37453
-0.374543
-0.37458
-0.373911
-0.371816
-0.36804
-0.356833
-0.386821
-0.384296
-0.381588
-0.379452
-0.378102
-0.377099
-0.375732
-0.372798
-0.369636
-0.355662
-0.397504
-0.393061
-0.388461
-0.384482
-0.381498
-0.37927
-0.376829
-0.37257
-0.369119
-0.353857
-0.409721
-0.403178
-0.396616
-0.390741
-0.386072
-0.382089
-0.377653
-0.371467
-0.365399
-0.350456
-0.424607
-0.415608
-0.407029
-0.399243
-0.392455
-0.38583
-0.377873
-0.368157
-0.356251
-0.341823
-0.331879
-0.323626
-0.313449
-0.301406
-0.287418
-0.271508
-0.253766
-0.234354
-0.2135
-0.191493
-0.168673
-0.145416
-0.122111
-0.0991957
-0.0770983
-0.0563068
-0.0372832
-0.0205938
-0.00640138
0.00636375
-0.336961
-0.328835
-0.318974
-0.307172
-0.293361
-0.27759
-0.259948
-0.240536
-0.219615
-0.197494
-0.174522
-0.151043
-0.127467
-0.104314
-0.0819719
-0.0608948
-0.0415325
-0.0243479
-0.00975001
0.00391055
-0.345382
-0.337842
-0.328122
-0.316676
-0.3032
-0.287729
-0.270161
-0.250701
-0.229744
-0.207482
-0.184264
-0.160487
-0.136569
-0.112971
-0.090143
-0.0685185
-0.0485159
-0.0303991
-0.0149022
0.000283282
-0.354218
-0.347206
-0.337717
-0.326746
-0.313771
-0.298635
-0.281402
-0.262186
-0.241237
-0.21885
-0.195384
-0.17125
-0.146895
-0.122781
-0.0993526
-0.0770146
-0.0561729
-0.0368788
-0.0200574
-0.00309477
-0.359949
-0.35511
-0.345851
-0.335128
-0.322711
-0.308091
-0.291197
-0.272204
-0.25136
-0.228955
-0.205348
-0.180961
-0.156246
-0.131672
-0.107672
-0.0846269
-0.0629147
-0.0424854
-0.024171
-0.00573247
-0.362776
-0.359862
-0.350907
-0.34027
-0.328287
-0.314193
-0.297711
-0.279002
-0.258337
-0.236024
-0.212417
-0.187947
-0.163051
-0.138207
-0.113814
-0.0902608
-0.0678398
-0.0465849
-0.0269711
-0.00764848
-0.362366
-0.36036
-0.351557
-0.341058
-0.329456
-0.315778
-0.29967
-0.281291
-0.260912
-0.238847
-0.215452
-0.191159
-0.166378
-0.141587
-0.117126
-0.0934232
-0.0706268
-0.0489989
-0.0285317
-0.00895219
-0.359178
-0.35626
-0.347195
-0.336819
-0.325397
-0.312008
-0.296334
-0.278452
-0.258576
-0.237032
-0.214174
-0.190435
-0.166172
-0.141861
-0.117755
-0.094341
-0.0715908
-0.0500321
-0.0291791
-0.00975901
-0.352973
-0.348167
-0.338789
-0.3282
-0.316591
-0.303466
-0.288431
-0.271337
-0.252302
-0.231656
-0.209735
-0.186954
-0.163604
-0.140155
-0.116767
-0.0939881
-0.0716333
-0.050452
-0.0295591
-0.0103622
-0.342242
-0.336833
-0.327218
-0.315482
-0.303088
-0.290064
-0.275694
-0.259534
-0.241586
-0.22215
-0.201506
-0.180034
-0.157952
-0.135722
-0.113429
-0.0916685
-0.0701463
-0.049766
-0.0293888
-0.010737
-0.314089
-0.317698
-0.309304
-0.296442
-0.2834
-0.270543
-0.256806
-0.241495
-0.224546
-0.206282
-0.186997
-0.167044
-0.146586
-0.12603
-0.105401
-0.0852685
-0.0652809
-0.0463757
-0.0273267
-0.0100752
-0.284061
-0.292895
-0.285636
-0.271853
-0.258287
-0.245905
-0.233291
-0.21936
-0.20391
-0.187274
-0.169766
-0.151711
-0.133219
-0.114636
-0.0959388
-0.0776669
-0.05944
-0.0422062
-0.0247429
-0.00912374
-0.253901
-0.265162
-0.259483
-0.246475
-0.233597
-0.222253
-0.211013
-0.198621
-0.184781
-0.169816
-0.154049
-0.137794
-0.121124
-0.104351
-0.0874177
-0.070846
-0.0542466
-0.038573
-0.0226285
-0.00847999
-0.224508
-0.236755
-0.233021
-0.221804
-0.210278
-0.200132
-0.19018
-0.179209
-0.166878
-0.153476
-0.139316
-0.124705
-0.109698
-0.0945828
-0.0792818
-0.0642987
-0.0492393
-0.0350481
-0.0205435
-0.00775947
-0.196321
-0.209023
-0.207277
-0.198191
-0.188285
-0.179399
-0.170667
-0.161026
-0.150126
-0.138211
-0.125565
-0.112486
-0.0990217
-0.0854437
-0.0716603
-0.0581589
-0.0445427
-0.0317403
-0.0185932
-0.00709687
-0.169953
-0.182799
-0.182812
-0.17583
-0.167618
-0.160032
-0.152491
-0.144111
-0.134562
-0.124046
-0.112814
-0.101153
-0.0891087
-0.0769445
-0.0645592
-0.0524268
-0.0401497
-0.0286399
-0.0167625
-0.00646938
-0.145769
-0.158442
-0.159891
-0.154851
-0.148304
-0.142021
-0.135637
-0.128444
-0.120152
-0.110934
-0.101011
-0.0906591
-0.0799198
-0.0690544
-0.0579557
-0.0470869
-0.0360501
-0.0257418
-0.0150484
-0.00588131
-0.123747
-0.136031
-0.138631
-0.135331
-0.130359
-0.125337
-0.12006
-0.113975
-0.106845
-0.0988258
-0.0901114
-0.0809644
-0.0714252
-0.061753
-0.0518374
-0.0421329
-0.0322417
-0.0230466
-0.0134524
-0.00533487
-0.103762
-0.115566
-0.119089
-0.117322
-0.113797
-0.109962
-0.105724
-0.100666
-0.0946056
-0.0876882
-0.0800844
-0.0720444
-0.0636057
-0.0550269
-0.0461957
-0.03756
-0.0287223
-0.0205538
-0.0119745
-0.00482997
-0.0857399
-0.0970279
-0.101287
-0.100851
-0.0986297
-0.0958862
-0.0926082
-0.0884952
-0.0834127
-0.0775014
-0.0709119
-0.0638825
-0.056448
-0.0488665
-0.0410245
-0.033365
-0.0254908
-0.0182632
-0.0106153
-0.00436663
-0.0696235
-0.0803771
-0.0852164
-0.0859257
-0.0848612
-0.0831054
-0.0807028
-0.0774489
-0.0732529
-0.0682528
-0.0625822
-0.0564689
-0.0499443
-0.0432662
-0.0363206
-0.0295466
-0.0225473
-0.0161757
-0.00937566
-0.00394488
-0.0553394
-0.0655604
-0.0708537
-0.0725422
-0.0724935
-0.0716182
-0.0700015
-0.0675191
-0.0641183
-0.0599353
-0.0550892
-0.0497981
-0.0440905
-0.0382236
-0.0320831
-0.0261051
-0.0198929
-0.0142923
-0.00825663
-0.00356476
-0.0428142
-0.0525259
-0.0581722
-0.0606919
-0.0615247
-0.0614229
-0.0605008
-0.0587013
-0.0560045
-0.0525451
-0.0484297
-0.0438678
-0.038885
-0.033738
-0.0283124
-0.0230413
-0.0175287
-0.0126144
-0.0072592
-0.00322637
-0.0319851
-0.0412264
-0.047145
-0.0503624
-0.0519497
-0.0525165
-0.0521976
-0.0509923
-0.0489087
-0.0460802
-0.0426025
-0.0386774
-0.0343277
-0.02981
-0.0250092
-0.0203566
-0.0154562
-0.0111431
-0.0063843
-0.00292984
-0.0227973
-0.0316183
-0.0377447
-0.0415394
-0.0437611
-0.0448944
-0.0450886
-0.0443897
-0.0428293
-0.0405397
-0.0376072
-0.0342269
-0.0304192
-0.0264403
-0.0221748
-0.0180523
-0.013677
-0.00987968
-0.0056328
-0.00267534
-0.0152024
-0.0236623
-0.0299453
-0.0342079
-0.0369503
-0.0385512
-0.0391701
-0.038891
-0.0377648
-0.035923
-0.0334439
-0.0305168
-0.0271604
-0.0236301
-0.0198106
-0.0161298
-0.0121922
-0.00882517
-0.00500547
-0.00246302
-0.00916131
-0.0173273
-0.0237269
-0.0283564
-0.0315105
-0.0334824
-0.0344388
-0.0344939
-0.033714
-0.0322296
-0.0301126
-0.0275478
-0.0245521
-0.0213805
-0.0179178
-0.0145903
-0.0110032
-0.00798051
-0.00450295
-0.00229306
-0.00464221
-0.0125904
-0.0190767
-0.0239788
-0.0274389
-0.0296864
-0.030894
-0.0311982
-0.0306769
-0.02946
-0.0276142
-0.0253206
-0.0225952
-0.0196925
-0.0164973
-0.0134348
-0.0101109
-0.00734653
-0.00412598
-0.00216529
-0.00159703
-0.00941509
-0.0159705
-0.0210606
-0.024727
-0.0271581
-0.0285322
-0.0290017
-0.0286526
-0.0276136
-0.0259485
-0.0238356
-0.0212905
-0.0185665
-0.0155502
-0.0126635
-0.00951646
-0.00692252
-0.00387714
-0.00207634
-2.11815e-07
-0.00777341
-0.0143837
-0.0195821
-0.0233603
-0.0258877
-0.0273473
-0.0279004
-0.0276386
-0.026689
-0.0251156
-0.0230921
-0.0206389
-0.0180018
-0.015079
-0.0122743
-0.00922482
-0.00670188
-0.00376522
-0.00201229
-0.0360305
-0.0829352
-0.124513
-0.160745
-0.191858
-0.21822
-0.240736
-0.260179
-0.27689
-0.29953
-0.00897588
-0.053967
-0.0938734
-0.129006
-0.159345
-0.185748
-0.207641
-0.228228
-0.243666
-0.266278
0.015231
-0.0274334
-0.0652175
-0.0988665
-0.127878
-0.153973
-0.175146
-0.196286
-0.211696
-0.233044
0.0368058
-0.00372739
-0.0396856
-0.072111
-0.100043
-0.125776
-0.146623
-0.167612
-0.183553
-0.203485
0.0559912
0.0172708
-0.017204
-0.0485942
-0.07571
-0.100921
-0.121569
-0.141891
-0.157987
-0.176339
0.0730451
0.0359225
0.00273489
-0.0276384
-0.0539984
-0.0784498
-0.0987485
-0.118153
-0.133995
-0.151109
0.0882365
0.0525659
0.020548
-0.00879604
-0.0343949
-0.0579715
-0.0778077
-0.09637
-0.111877
-0.128117
0.10179
0.0674443
0.0364964
0.00814626
-0.0167213
-0.0394696
-0.0588448
-0.0767422
-0.0918888
-0.107341
0.113875
0.0807299
0.0507539
0.0233205
-0.000873219
-0.0228939
-0.0418238
-0.0591459
-0.0738661
-0.0885363
0.124626
0.0925574
0.0634593
0.0368537
0.0132804
-0.00809259
-0.0265724
-0.0433499
-0.0576289
-0.0715777
0.134149
0.103039
0.0747328
0.0488707
0.0258731
0.00508775
-0.0129524
-0.0292288
-0.0431115
-0.0564226
0.142528
0.112269
0.0846752
0.0594784
0.0370099
0.0167526
-0.000885198
-0.0167205
-0.0302613
-0.0430086
0.149835
0.120326
0.0933678
0.0687611
0.0467692
0.0269777
0.0096942
-0.00575747
-0.0190023
-0.0312575
0.15613
0.127279
0.100878
0.0767875
0.0552161
0.0358298
0.0188531
0.00373123
-0.00926219
-0.0211015
0.161453
0.133179
0.10726
0.0836141
0.0624077
0.0433684
0.0266518
0.0118051
-0.000984022
-0.0124854
0.165831
0.138052
0.112548
0.0892848
0.0683899
0.049641
0.0331378
0.0185112
0.00587871
-0.00536094
0.169281
0.141919
0.116775
0.0938352
0.0731992
0.0546849
0.0383485
0.0238873
0.0113644
0.000312274
0.17183
0.144817
0.119976
0.0973017
0.0768721
0.0585369
0.0423206
0.0279702
0.0155086
0.00456912
0.173494
0.146766
0.122174
0.0997135
0.0794456
0.0612416
0.0451042
0.0308153
0.0183697
0.00746728
0.174211
0.147691
0.123274
0.100971
0.0808214
0.0627105
0.0466251
0.0323715
0.0199232
0.00901596
0.650221
0.651185
0.642353
0.624681
0.599114
0.56452
0.516801
0.449626
0.361475
0.299052
0.582805
0.576637
0.556707
0.529758
0.496223
0.452797
0.394219
0.313987
0.210927
0.137605
0.512105
0.497459
0.468621
0.433967
0.392775
0.340462
0.271359
0.179082
0.0623287
-0.0192909
0.43252
0.411755
0.377603
0.337512
0.289764
0.229307
0.150715
0.0482823
-0.080634
-0.166499
0.349893
0.324272
0.28633
0.241993
0.188723
0.121243
0.0343884
-0.0758029
-0.213628
-0.298998
0.268902
0.238844
0.19773
0.149805
0.091903
0.0186588
-0.0750936
-0.19249
-0.328704
-0.414457
0.191389
0.15741
0.113814
0.0630952
0.00159268
-0.0759065
-0.174282
-0.294761
-0.426929
-0.510758
0.118388
0.0812045
0.0359805
-0.0165224
-0.0803659
-0.160447
-0.2606
-0.380789
-0.506977
-0.58615
0.0504909
0.0111118
-0.0344768
-0.0879518
-0.153081
-0.233729
-0.333122
-0.449802
-0.566969
-0.639837
-0.0132422
-0.0518609
-0.0970725
-0.15065
-0.215616
-0.295096
-0.391377
-0.501196
-0.606215
-0.672248
1.09659
1.11443
1.13519
1.15894
1.18564
1.21496
1.24604
1.27635
1.30263
1.33196
1.08986
1.1065
1.12634
1.14913
1.17462
1.20245
1.2317
1.25976
1.28332
1.31054
1.07621
1.09048
1.10851
1.12941
1.15253
1.1774
1.203
1.22656
1.24489
1.2677
1.05526
1.06611
1.08153
1.09966
1.11929
1.13984
1.16009
1.17703
1.1877
1.20402
1.02659
1.03311
1.04523
1.0598
1.07495
1.08988
1.10322
1.11159
1.11231
1.12033
0.989746
0.991114
0.99933
1.00967
1.01948
1.02774
1.0328
1.0309
1.01959
1.01783
0.944559
0.940219
0.944172
0.94975
0.953418
0.953991
0.949592
0.935963
0.910846
0.898174
0.889539
0.879206
0.879273
0.880123
0.877233
0.869445
0.854718
0.82829
0.787989
0.763484
0.825421
0.809467
0.806283
0.80191
0.791726
0.775044
0.749496
0.709678
0.653484
0.616326
0.745289
0.731158
0.727169
0.71705
0.6989
0.672916
0.636149
0.582563
0.510216
0.460149
0.999763
0.999243
0.999276
0.999775
1.00047
1.00133
1.00244
1.00389
1.00578
1.00817
1.01117
1.01483
1.01924
1.02451
1.03076
1.03812
1.04672
1.0567
1.06823
1.08142
0.999703
0.999131
0.999078
0.999444
1
1.00072
1.00169
1.003
1.00472
1.00694
1.00973
1.01316
1.01732
1.02229
1.02821
1.03517
1.04332
1.05275
1.06363
1.07599
0.999635
0.998907
0.998625
0.998725
0.999015
0.999469
1.00016
1.00117
1.00258
1.00444
1.00681
1.00978
1.01342
1.01781
1.02304
1.02921
1.03641
1.04473
1.05426
1.06491
0.999517
0.998527
0.997889
0.997593
0.997484
0.997534
0.997806
0.998369
0.999276
1.00059
1.00234
1.00461
1.00746
1.01094
1.01512
1.02006
1.0258
1.03238
1.03982
1.04779
0.99934
0.997978
0.996862
0.996036
0.995389
0.994886
0.994574
0.994518
0.994763
0.995325
0.996242
0.997565
0.999331
1.00157
1.0043
1.00752
1.01124
1.01537
1.01989
1.02411
0.999096
0.997241
0.995523
0.994035
0.99271
0.991509
0.990453
0.98958
0.988916
0.988516
0.988393
0.988531
0.988926
0.989557
0.99041
0.991403
0.992499
0.993422
0.994132
0.993389
0.998778
0.996296
0.993852
0.991573
0.989432
0.987387
0.985434
0.983543
0.981831
0.980257
0.978794
0.977421
0.976104
0.974747
0.973274
0.97147
0.969252
0.966094
0.962085
0.955239
0.998378
0.995126
0.99183
0.988633
0.985546
0.982483
0.979415
0.976478
0.973571
0.970622
0.967599
0.964437
0.961064
0.957305
0.953049
0.947897
0.941768
0.933623
0.923829
0.908851
0.997913
0.993759
0.989496
0.985203
0.980972
0.976821
0.97271
0.968506
0.964156
0.959605
0.954794
0.949588
0.943876
0.937361
0.929918
0.92087
0.910299
0.896352
0.880173
0.855285
0.99733
0.991962
0.986589
0.981272
0.975944
0.970549
0.965032
0.959315
0.953327
0.946958
0.940104
0.93254
0.924109
0.914314
0.903015
0.888972
0.872503
0.85006
0.824731
0.78512
0.996856
0.990583
0.984293
0.977913
0.971386
0.964673
0.957721
0.950439
0.942724
0.934417
0.925369
0.91529
0.903963
0.890785
0.875511
0.856763
0.834455
0.804808
0.767988
0.711849
0.996405
0.989242
0.982018
0.974608
0.966977
0.959094
0.950898
0.942275
0.933102
0.923193
0.912384
0.900349
0.886867
0.871304
0.853409
0.831864
0.806503
0.774636
0.736756
0.689583
0.99595
0.98791
0.979754
0.971322
0.962606
0.953586
0.944192
0.934291
0.923748
0.912366
0.899975
0.886247
0.870963
0.853531
0.833716
0.810448
0.783629
0.751584
0.714771
0.671068
0.995492
0.986591
0.977515
0.968054
0.958244
0.948088
0.93751
0.926364
0.914504
0.90173
0.887871
0.872612
0.855747
0.836748
0.815423
0.790912
0.763217
0.731043
0.694887
0.652615
0.995031
0.98529
0.975316
0.964835
0.953935
0.94266
0.930933
0.918596
0.905496
0.891431
0.87624
0.859627
0.84141
0.821121
0.798624
0.773192
0.74492
0.712652
0.677085
0.636197
0.994574
0.984017
0.973179
0.961702
0.949735
0.937374
0.924549
0.91109
0.896838
0.881597
0.865216
0.847425
0.828068
0.806732
0.783333
0.757237
0.728616
0.696442
0.661544
0.622059
0.994125
0.982782
0.971124
0.95869
0.945693
0.93229
0.918425
0.90392
0.88861
0.872305
0.85487
0.836061
0.815747
0.793567
0.769477
0.742927
0.714135
0.682212
0.647993
0.609789
0.993688
0.981596
0.969171
0.955829
0.94185
0.927458
0.912618
0.897145
0.88087
0.863612
0.845249
0.825565
0.804452
0.781596
0.75698
0.730136
0.701301
0.669708
0.636137
0.599095
0.993268
0.980471
0.967334
0.953142
0.938237
0.922917
0.907172
0.890813
0.873666
0.855559
0.836385
0.815952
0.794175
0.77078
0.745772
0.718753
0.689955
0.658733
0.625777
0.589805
0.992868
0.979415
0.965628
0.95065
0.934882
0.9187
0.902124
0.884961
0.867033
0.848176
0.828296
0.807228
0.7849
0.76108
0.735781
0.708674
0.67997
0.649136
0.616765
0.581781
0.992493
0.978435
0.96406
0.948364
0.931804
0.914834
0.897502
0.879617
0.860994
0.84148
0.820991
0.799385
0.776603
0.752451
0.726941
0.699807
0.671233
0.64079
0.608969
0.574889
0.992146
0.977538
0.962636
0.946294
0.929018
0.911336
0.893325
0.874798
0.855565
0.83548
0.814469
0.792412
0.769258
0.744847
0.719189
0.692072
0.663648
0.633584
0.602273
0.569013
0.991829
0.976725
0.961357
0.944445
0.926536
0.908222
0.88961
0.870517
0.850752
0.830177
0.808722
0.78629
0.762833
0.738223
0.712464
0.685392
0.657128
0.627421
0.596575
0.564049
0.991546
0.975994
0.960217
0.942817
0.924364
0.905501
0.886363
0.86678
0.846559
0.825567
0.803741
0.780998
0.757299
0.732537
0.706712
0.679702
0.651596
0.622218
0.591786
0.559908
0.991303
0.975338
0.95921
0.941416
0.922514
0.903181
0.883591
0.863588
0.842983
0.821644
0.799511
0.776516
0.752623
0.727748
0.701883
0.674942
0.646985
0.617899
0.587831
0.556511
0.991101
0.974755
0.958342
0.940259
0.921002
0.901273
0.881296
0.860942
0.840021
0.8184
0.796018
0.772822
0.748777
0.723819
0.697932
0.67106
0.643237
0.614403
0.584643
0.553792
0.99094
0.974254
0.957646
0.939375
0.91984
0.899779
0.879479
0.858842
0.837669
0.815825
0.793248
0.769896
0.745735
0.720719
0.694822
0.668012
0.640304
0.611678
0.582171
0.551698
0.990789
0.973879
0.957184
0.938783
0.919005
0.898662
0.878116
0.857273
0.835917
0.813907
0.791184
0.767717
0.743475
0.718418
0.692518
0.665761
0.638144
0.609682
0.580372
0.550188
0.991029
0.974213
0.957468
0.938744
0.918567
0.897931
0.877207
0.856236
0.834761
0.812637
0.789815
0.766273
0.741977
0.716895
0.690996
0.664276
0.636725
0.608379
0.579215
0.549244
0.990063
0.974322
0.958566
0.939481
0.918651
0.897648
0.876785
0.855744
0.834204
0.812017
0.789141
0.765557
0.741233
0.716139
0.69024
0.663539
0.636022
0.607737
0.578658
0.548834
0.644742
0.574674
0.506975
0.433678
0.356715
0.281279
0.209127
0.140426
0.0756511
0.0166551
0.636501
0.563989
0.494109
0.42582
0.354888
0.284696
0.217798
0.154288
0.0949077
0.0408333
0.622246
0.553189
0.48393
0.420087
0.355377
0.290236
0.227734
0.168649
0.113414
0.0623341
0.607293
0.543362
0.476288
0.415419
0.355742
0.295302
0.236683
0.181265
0.129425
0.081286
0.593526
0.534285
0.470324
0.411963
0.3563
0.300138
0.245048
0.192733
0.143811
0.0982003
0.581232
0.525976
0.465526
0.409605
0.357104
0.304628
0.25275
0.203147
0.156703
0.113291
0.570366
0.518508
0.461575
0.4081
0.35817
0.308777
0.259774
0.212583
0.168268
0.126769
0.56086
0.511927
0.458299
0.407224
0.359465
0.312617
0.266136
0.221104
0.178644
0.138816
0.552617
0.506213
0.455581
0.406786
0.360915
0.316171
0.271863
0.228758
0.187934
0.149575
0.545523
0.501302
0.453332
0.406642
0.36244
0.319448
0.276991
0.235591
0.196219
0.159158
0.53946
0.49712
0.451476
0.406688
0.363964
0.322445
0.281553
0.241644
0.203563
0.16765
0.534318
0.493584
0.449948
0.406843
0.365421
0.325146
0.285573
0.246956
0.210016
0.175119
0.529994
0.490618
0.448688
0.407044
0.366756
0.327534
0.289067
0.25156
0.215621
0.181622
0.5264
0.488148
0.447644
0.407241
0.367925
0.329589
0.292045
0.255478
0.220411
0.187207
0.523458
0.48611
0.446767
0.407393
0.368891
0.33129
0.294509
0.25873
0.224401
0.191877
0.521101
0.484451
0.44602
0.407467
0.369624
0.332619
0.296461
0.261334
0.227628
0.195679
0.519272
0.483121
0.44537
0.407441
0.370106
0.333566
0.297902
0.263307
0.23013
0.198689
0.517926
0.482076
0.444776
0.407277
0.370306
0.334116
0.298836
0.264663
0.231914
0.200873
0.517053
0.481302
0.444201
0.406908
0.370141
0.334187
0.299193
0.265351
0.232953
0.202262
0.516706
0.480942
0.443813
0.406473
0.369698
0.333811
0.29896
0.265317
0.23314
0.202685
)
;

boundaryField
{
    bottom
    {
        type            symmetryPlane;
    }
    right
    {
        type            fixedValue;
        value           uniform 0;
    }
    top
    {
        type            symmetryPlane;
    }
    left
    {
        type            fixedValue;
        value           uniform 1;
    }
    cylinder
    {
        type            zeroGradient;
    }
    defaultFaces
    {
        type            empty;
    }
}


// ************************************************************************* //
