/*--------------------------------*- C++ -*----------------------------------*\
| =========                 |                                                 |
| \\      /  F ield         | OpenFOAM: The Open Source CFD Toolbox           |
|  \\    /   O peration     | Version:  4.1                                   |
|   \\  /    A nd           | Web:      www.OpenFOAM.org                      |
|    \\/     M anipulation  |                                                 |
\*---------------------------------------------------------------------------*/
FoamFile
{
    version     2.0;
    format      ascii;
    class       volVectorField;
    location    "6.4";
    object      U;
}
// * * * * * * * * * * * * * * * * * * * * * * * * * * * * * * * * * * * * * //

dimensions      [0 1 -1 0 0 0 0];

internalField   nonuniform List<vector> 
2000
(
(-0.0319191 0.0287589 5.35344e-20)
(0.0117553 0.0229748 0)
(0.148805 -0.00282308 8.62718e-20)
(0.358262 -0.035365 3.87544e-20)
(0.611796 -0.0653033 -7.21362e-20)
(0.873592 -0.0888313 -9.68028e-20)
(1.11331 -0.104741 3.07867e-20)
(1.30987 -0.118553 0)
(1.46731 -0.120644 -2.36774e-20)
(1.55588 -0.141298 0)
(-0.0237602 0.0202198 -2.65465e-20)
(0.0640465 -0.00127318 2.36835e-20)
(0.267456 -0.0323236 -9.08423e-20)
(0.546006 -0.0607247 -1.21751e-19)
(0.846844 -0.0801091 -8.41938e-22)
(1.12167 -0.0907444 3.1845e-20)
(1.3425 -0.0955322 -2.99615e-20)
(1.50247 -0.0987027 -2.58825e-20)
(1.60728 -0.0975065 2.36771e-20)
(1.65818 -0.108948 3.9123e-20)
(-0.00809498 0.00994757 2.84768e-20)
(0.140854 -0.0258418 -2.6673e-20)
(0.422867 -0.0551494 4.56835e-20)
(0.763257 -0.0716576 -1.53071e-21)
(1.0845 -0.076483 3.68945e-20)
(1.34008 -0.0749396 3.29753e-20)
(1.51841 -0.0717092 2.92975e-20)
(1.62862 -0.070368 2.58826e-20)
(1.68847 -0.0685752 2.16069e-20)
(1.71797 -0.0773289 -1.87201e-20)
(0.0174361 -0.00160836 -7.22215e-22)
(0.245316 -0.0471417 -2.82948e-20)
(0.60885 -0.065345 0)
(0.988019 -0.0645501 4.05509e-20)
(1.29685 -0.0555853 -3.9323e-20)
(1.50923 -0.0461481 0)
(1.6363 -0.0399692 0)
(1.70225 -0.038022 0)
(1.73183 -0.037611 -2.16081e-20)
(1.73743 -0.0456066 3.55629e-20)
(0.0549779 -0.0130601 6.62129e-20)
(0.377227 -0.0596961 -6.75815e-24)
(0.810721 -0.0581514 2.63203e-20)
(1.19661 -0.0396672 2.14334e-20)
(1.4671 -0.021506 1.92231e-20)
(1.62708 -0.00946768 1.61337e-20)
(1.70779 -0.00414262 0)
(1.74117 -0.00390496 1.12707e-20)
(1.74986 -0.00630411 -4.65942e-20)
(1.74899 -0.0145773 6.06227e-20)
(0.105863 -0.0222314 -1.03376e-19)
(0.530971 -0.0577777 1.87142e-21)
(1.0094 -0.0320988 -5.21112e-20)
(1.37273 -6.40283e-05 4.66947e-20)
(1.59209 0.0215496 -5.5435e-20)
(1.7022 0.0319405 1.78626e-20)
(1.74658 0.0340661 0)
(1.75793 0.0312086 -1.12716e-20)
(1.75617 0.0258156 9.42136e-21)
(1.74994 0.0175166 2.6873e-20)
(0.170236 -0.0263268 0)
(0.695511 -0.0373762 0)
(1.18854 0.0112248 -2.63633e-20)
(1.51013 0.0505693 2.45423e-20)
(1.67657 0.070554 -1.75846e-20)
(1.7448 0.0763475 1.65097e-20)
(1.7631 0.0738574 2.2858e-20)
(1.76118 0.0672642 -2.16064e-20)
(1.75352 0.0588324 -1.48327e-20)
(1.74609 0.0497553 7.13504e-21)
(0.246224 -0.0223988 1.97511e-20)
(0.857091 0.00235378 0)
(1.33837 0.0687033 -1.23546e-20)
(1.60938 0.108988 4.5833e-20)
(1.72753 0.123395 -2.85932e-20)
(1.76335 0.122707 0)
(1.7643 0.114873 0)
(1.75481 0.104187 0)
(1.74484 0.0927721 -1.23862e-20)
(1.73681 0.0826139 1.17737e-20)
(0.32979 -0.00806217 -1.0125e-20)
(1.00335 0.0593183 -3.83507e-22)
(1.45482 0.136765 -1.41253e-20)
(1.67406 0.172535 5.35133e-21)
(1.75153 0.178536 5.12494e-21)
(1.76381 0.170277 7.2282e-21)
(1.75401 0.156713 0)
(1.74085 0.141766 -1.62173e-21)
(1.73014 0.127384 -5.9005e-21)
(1.72234 0.115306 4.51751e-21)
(0.415266 0.0179431 0)
(1.12591 0.129821 -8.63221e-21)
(1.53734 0.211872 0)
(1.70849 0.238993 -3.03102e-21)
(1.75372 0.234721 -2.80013e-21)
(1.74996 0.218317 -3.19999e-21)
(1.73415 0.198824 0)
(1.71972 0.179471 1.62187e-21)
(1.70947 0.162037 1.14764e-21)
(1.70241 0.147516 4.36102e-22)
(-0.0099892 0.00936882 0)
(-0.0387376 0.0167527 -4.78419e-21)
(-0.0781675 0.0187903 0)
(-0.114904 0.0184375 -6.25417e-21)
(-0.146339 0.0168894 -1.97189e-21)
(-0.172127 0.0147047 3.6615e-21)
(-0.192238 0.0122082 -3.44822e-21)
(-0.206933 0.00965373 3.25269e-21)
(-0.216863 0.00732029 3.84034e-23)
(-0.22343 0.00554534 2.86048e-21)
(-0.0115073 0.0268367 -1.51749e-20)
(-0.0391982 0.0482973 9.47962e-21)
(-0.0748439 0.0543977 -8.97519e-21)
(-0.106831 0.0534131 4.14966e-21)
(-0.132935 0.0488023 1.96341e-20)
(-0.152823 0.0422014 -7.36199e-21)
(-0.16643 0.0345549 0)
(-0.173882 0.026635 -3.24174e-21)
(-0.17546 0.0193186 -3.04011e-21)
(-0.172781 0.013695 0)
(-0.0142636 0.0407718 1.01241e-20)
(-0.0401931 0.0743159 0)
(-0.068987 0.0842734 2.71157e-20)
(-0.0922266 0.0827956 -3.38655e-20)
(-0.108392 0.0752391 7.98068e-21)
(-0.117276 0.0641766 0)
(-0.118833 0.0510551 0)
(-0.113119 0.0371033 0)
(-0.0998451 0.0238326 2.46995e-20)
(-0.079854 0.0133267 -2.34742e-20)
(-0.0177529 0.0498095 0)
(-0.0417707 0.09226 -1.987e-20)
(-0.0618253 0.105342 3.68933e-20)
(-0.0734269 0.103337 -1.72104e-20)
(-0.0760579 0.0929716 1.62207e-20)
(-0.0698026 0.0775465 -4.57263e-20)
(-0.0547066 0.0588095 6.65663e-23)
(-0.031025 0.0381309 2.70965e-20)
(0.00139716 0.017405 2.51132e-20)
(0.0456301 0.00105941 -3.57467e-20)
(-0.0214892 0.0538011 2.13206e-20)
(-0.0438417 0.101017 -4.07649e-20)
(-0.0543467 0.115681 -1.56215e-22)
(-0.0523893 0.112597 1.52064e-22)
(-0.0385918 0.0993051 1.63878e-20)
(-0.0134706 0.0796452 -4.64994e-20)
(0.0227255 0.0555735 0)
(0.0693997 0.028366 -1.37732e-20)
(0.125721 -0.000172223 1.2917e-20)
(0.201552 -0.0237364 -4.80807e-20)
(-0.0251681 0.0536221 -2.7937e-22)
(-0.045995 0.100973 4.12735e-20)
(-0.0464507 0.114773 1.89885e-20)
(-0.0291418 0.109268 1.81867e-20)
(0.0043074 0.0923651 1.65609e-20)
(0.0529611 0.0682987 1.55638e-20)
(0.116211 0.0393995 0)
(0.193208 0.00720787 1.37719e-20)
(0.277458 -0.0276783 3.82063e-20)
(0.396489 -0.0582576 -1.2772e-20)
(-0.028664 0.0506975 7.32144e-23)
(-0.0472381 0.093663 2.12688e-20)
(-0.036113 0.103512 0)
(-0.000204141 0.0935992 -3.5568e-20)
(0.0581908 0.071935 3.37033e-20)
(0.13754 0.0431244 0)
(0.235966 0.00987891 0)
(0.352259 -0.0250122 0)
(0.467755 -0.0632231 -2.60438e-20)
(0.638033 -0.096354 -4.82608e-20)
(-0.031829 0.0463596 -2.32789e-20)
(-0.0456614 0.081006 2.18059e-20)
(-0.0187935 0.0838312 4.01175e-20)
(0.0422595 0.0675427 5.37032e-22)
(0.134496 0.0403223 3.41463e-20)
(0.254528 0.00710771 3.17971e-20)
(0.396731 -0.0289732 2.96863e-20)
(0.55718 -0.0635526 2.76691e-20)
(0.704715 -0.1006 2.60404e-20)
(0.916098 -0.128609 -2.3802e-20)
(-0.0341899 0.0413382 -7.30683e-20)
(-0.0381778 0.0645513 -2.16993e-20)
(0.0124175 0.0580473 -8.05459e-20)
(0.109383 0.0344107 -3.7e-20)
(0.24729 0.00223629 4.87402e-22)
(0.417364 -0.0330729 -3.14546e-20)
(0.606858 -0.0677401 2.99328e-20)
(0.803494 -0.0984995 -2.76656e-20)
(0.977959 -0.128417 2.54341e-20)
(1.19319 -0.145528 -4.7225e-20)
(-0.0347394 0.0356326 4.91308e-20)
(-0.0206453 0.0451075 0)
(0.0656881 0.0283941 4.10643e-20)
(0.212344 -0.00160701 -8.5391e-23)
(0.406693 -0.0355775 5.89422e-22)
(0.628676 -0.0680485 3.17196e-20)
(0.855834 -0.0953245 -8.98113e-20)
(1.06616 -0.118998 0)
(1.24891 -0.135312 -2.54314e-20)
(1.41749 -0.145695 0)
(-0.228182 0.00428689 0)
(-0.231939 0.00194065 -2.62675e-21)
(-0.232331 -0.000734409 5.18697e-21)
(-0.229348 -0.00350814 -2.24317e-21)
(-0.222958 -0.00632104 0)
(-0.213042 -0.00914034 2.20849e-21)
(-0.199526 -0.0119456 -2.21944e-21)
(-0.182419 -0.014684 0)
(-0.161772 -0.0173456 0)
(-0.137651 -0.019899 2.08558e-22)
(-0.110163 -0.0223296 0)
(-0.0794173 -0.0246437 0)
(-0.0455946 -0.0267468 0)
(-0.00885642 -0.028673 0)
(0.0306503 -0.0304797 -1.4672e-22)
(0.0727612 -0.0322008 1.47481e-22)
(0.117406 -0.0339095 0)
(0.164278 -0.0357414 -1.5073e-23)
(0.213349 -0.0376582 1.51524e-23)
(0.28231 -0.0399717 0)
(-0.170336 0.0100347 0)
(-0.170855 0.00322979 6.86049e-22)
(-0.168082 -0.00462245 0)
(-0.162054 -0.0127151 9.66069e-21)
(-0.152894 -0.0209241 -9.39982e-21)
(-0.140539 -0.0291832 5.92395e-22)
(-0.124868 -0.0374978 -4.21455e-21)
(-0.105908 -0.0454947 8.64629e-21)
(-0.0837504 -0.0532385 -6.97838e-21)
(-0.0584606 -0.0606657 3.78617e-21)
(-0.0301938 -0.0676971 2.79279e-21)
(0.0010781 -0.0742614 -4.87061e-21)
(0.0351914 -0.0803337 2.41168e-21)
(0.0717785 -0.0859141 1.04667e-21)
(0.110707 -0.0910681 -8.14203e-22)
(0.151842 -0.0958907 1.42095e-22)
(0.195029 -0.100562 9.9344e-23)
(0.240194 -0.105453 7.55759e-23)
(0.28551 -0.110514 -7.59424e-23)
(0.350643 -0.1168 -4.70932e-24)
(-0.0654518 0.0076544 -7.18159e-22)
(-0.0598211 -0.0029602 -6.87246e-22)
(-0.0512419 -0.0153 -6.89061e-22)
(-0.0395309 -0.0280578 0)
(-0.0253361 -0.0409951 -1.11255e-20)
(-0.00878469 -0.0540088 8.69265e-21)
(0.0106918 -0.0668815 0)
(0.0331399 -0.0794829 -1.05961e-21)
(0.0579778 -0.0917345 -4.76057e-22)
(0.0852692 -0.103461 5.78188e-21)
(0.114951 -0.114504 -8.02893e-22)
(0.1469 -0.124703 -6.60292e-21)
(0.180963 -0.134102 -3.05123e-22)
(0.216908 -0.14266 -2.34823e-22)
(0.25453 -0.150408 -2.05615e-22)
(0.293649 -0.157462 3.68967e-22)
(0.333882 -0.164032 -3.79794e-22)
(0.375881 -0.170574 -3.46649e-22)
(0.414946 -0.177097 -5.46536e-23)
(0.473276 -0.185535 1.765e-23)
(0.0736473 -0.00704472 -2.23967e-20)
(0.0875938 -0.0199723 5.45803e-22)
(0.103552 -0.0352951 1.36897e-21)
(0.12245 -0.0515899 2.2105e-20)
(0.143208 -0.0681977 1.97072e-21)
(0.165609 -0.0848798 6.13208e-22)
(0.189784 -0.101284 -1.70413e-20)
(0.21582 -0.117524 1.03634e-20)
(0.243595 -0.133304 8.49683e-21)
(0.273006 -0.148346 -7.50852e-21)
(0.303924 -0.162438 8.08152e-22)
(0.336191 -0.175402 7.34566e-21)
(0.369643 -0.187152 3.02583e-22)
(0.404062 -0.197631 2.4472e-21)
(0.439224 -0.206896 -1.70454e-21)
(0.475014 -0.215022 -1.14738e-21)
(0.510688 -0.222278 1.00663e-21)
(0.547961 -0.22895 0)
(0.579578 -0.23522 1.34069e-22)
(0.628779 -0.243266 3.01977e-24)
(0.241391 -0.0334013 4.74303e-20)
(0.265786 -0.0474889 -2.17899e-20)
(0.288474 -0.0647716 2.33109e-20)
(0.313919 -0.0833146 0)
(0.341011 -0.102248 -1.32727e-21)
(0.368888 -0.121322 -2.00249e-20)
(0.397478 -0.14032 3.2294e-24)
(0.426861 -0.158994 1.33539e-21)
(0.456971 -0.177027 1.75779e-20)
(0.487657 -0.194109 9.41223e-22)
(0.518771 -0.209976 0)
(0.550124 -0.224392 -7.42625e-22)
(0.581575 -0.237235 0)
(0.612893 -0.248384 -5.38178e-22)
(0.643913 -0.257954 0)
(0.674584 -0.265877 0)
(0.704017 -0.27265 2.53037e-22)
(0.734438 -0.278093 -2.83706e-22)
(0.758244 -0.28301 2.53627e-22)
(0.795804 -0.288315 -6.26473e-23)
(0.442787 -0.0673748 0)
(0.474779 -0.082488 -1.49148e-21)
(0.502581 -0.101214 -4.61327e-20)
(0.532321 -0.120928 4.47087e-20)
(0.563453 -0.140897 -1.37175e-21)
(0.594689 -0.161069 0)
(0.625661 -0.181215 -1.92407e-20)
(0.656357 -0.200953 3.59963e-20)
(0.686704 -0.219893 -1.90064e-20)
(0.716499 -0.23766 -9.89939e-22)
(0.745591 -0.253948 -8.91863e-22)
(0.773729 -0.268454 -7.90129e-22)
(0.800874 -0.281073 0)
(0.826714 -0.291588 3.61796e-21)
(0.851364 -0.300265 -8.08286e-21)
(0.874546 -0.30678 3.40085e-21)
(0.89604 -0.312082 -2.88387e-22)
(0.917058 -0.315214 -1.99038e-22)
(0.93296 -0.31825 7.2085e-23)
(0.956366 -0.319458 -7.02642e-23)
(0.682829 -0.104078 4.82805e-20)
(0.716156 -0.119503 0)
(0.744987 -0.138819 -1.46418e-21)
(0.775088 -0.158669 2.84237e-21)
(0.80609 -0.178674 2.7392e-21)
(0.836627 -0.198936 1.30732e-21)
(0.866185 -0.219103 1.23855e-21)
(0.894572 -0.23868 -1.68296e-20)
(0.921624 -0.257249 2.01036e-20)
(0.947048 -0.274396 1.69753e-20)
(0.970752 -0.289815 -1.40985e-20)
(0.992396 -0.303149 1.56442e-21)
(1.01219 -0.314373 -5.05623e-21)
(1.02961 -0.323164 1.3799e-21)
(1.04543 -0.330022 5.1817e-21)
(1.05862 -0.334306 3.829e-22)
(1.0707 -0.337552 -4.02632e-22)
(1.08015 -0.337856 5.36009e-22)
(1.08819 -0.338936 7.45415e-22)
(1.09599 -0.335929 3.66779e-23)
(0.951351 -0.135695 0)
(0.978929 -0.151167 -4.76812e-20)
(1.00356 -0.169985 4.89412e-20)
(1.02918 -0.189172 -1.42291e-21)
(1.05521 -0.208702 -2.70988e-21)
(1.08039 -0.228418 -1.30609e-21)
(1.10409 -0.247776 -2.44556e-21)
(1.12583 -0.266267 0)
(1.14539 -0.283505 -1.06654e-21)
(1.16242 -0.29907 -9.72722e-22)
(1.17702 -0.312708 -8.62658e-22)
(1.18877 -0.324054 -1.53784e-21)
(1.19831 -0.33321 0)
(1.20481 -0.339774 0)
(1.21 -0.344492 -4.69745e-22)
(1.21171 -0.346421 -3.3925e-21)
(1.21385 -0.347644 2.35022e-21)
(1.21117 -0.345391 -1.98367e-22)
(1.21189 -0.344842 -3.82025e-22)
(1.20486 -0.338536 1.11927e-22)
(1.21546 -0.154985 4.92256e-20)
(1.23427 -0.171038 0)
(1.25171 -0.188993 0)
(1.26937 -0.207579 -4.3544e-20)
(1.28667 -0.226585 3.0029e-21)
(1.30266 -0.245362 8.06736e-20)
(1.31658 -0.26337 -3.79114e-20)
(1.32784 -0.280224 0)
(1.33634 -0.295623 0)
(1.34184 -0.309183 0)
(1.34476 -0.320745 4.38301e-22)
(1.3447 -0.32998 1.11832e-21)
(1.3428 -0.337111 9.62537e-21)
(1.3379 -0.341691 -9.28832e-21)
(1.33267 -0.344628 3.29393e-21)
(1.32373 -0.344769 -2.90629e-21)
(1.31726 -0.344526 0)
(1.30435 -0.340543 9.64279e-23)
(1.29943 -0.338922 1.11692e-22)
(1.28074 -0.330501 0)
(1.43817 -0.162187 -7.60174e-22)
(1.453 -0.17812 -4.60756e-20)
(1.46298 -0.194573 4.55959e-20)
(1.46995 -0.211926 0)
(1.47516 -0.229337 3.98948e-20)
(1.47857 -0.246134 -7.71547e-20)
(1.47977 -0.262076 3.72855e-20)
(1.47831 -0.276927 0)
(1.47443 -0.290436 1.49779e-20)
(1.46802 -0.302245 -2.83787e-20)
(1.45981 -0.312242 1.38227e-20)
(1.44933 -0.320103 -3.59568e-22)
(1.43809 -0.326085 0)
(1.42447 -0.329709 -7.9293e-21)
(1.41181 -0.331906 1.07159e-20)
(1.39565 -0.331443 -3.09512e-21)
(1.38371 -0.330761 -1.79283e-21)
(1.36439 -0.326342 1.28261e-21)
(1.35628 -0.324454 5.80897e-22)
(1.33046 -0.315364 0)
(1.62759 -0.146902 0)
(1.62391 -0.162242 0)
(1.61481 -0.176227 0)
(1.60423 -0.191063 0)
(1.59425 -0.206544 0)
(1.58464 -0.221863 0)
(1.57462 -0.23648 0)
(1.56339 -0.250078 0)
(1.55106 -0.262552 0)
(1.5373 -0.273664 0)
(1.52286 -0.283393 0)
(1.50695 -0.291394 0)
(1.49117 -0.297928 0)
(1.47348 -0.302432 0)
(1.45749 -0.305785 0)
(1.43809 -0.3067 0)
(1.42365 -0.307417 0)
(1.4015 -0.304626 0)
(1.39166 -0.30389 0)
(1.36291 -0.296597 0)
(1.67903 -0.133581 0)
(1.67799 -0.150527 0)
(1.66794 -0.166205 0)
(1.65452 -0.181862 0)
(1.64141 -0.197512 0)
(1.62884 -0.212624 0)
(1.61603 -0.226785 0)
(1.6021 -0.239743 0)
(1.58721 -0.251453 0)
(1.5711 -0.261739 0)
(1.55459 -0.270637 0)
(1.53688 -0.277856 0)
(1.51957 -0.283682 0)
(1.50054 -0.287598 0)
(1.48345 -0.290456 0)
(1.463 -0.291039 0)
(1.44776 -0.291473 0)
(1.42475 -0.2886 0)
(1.41438 -0.28771 0)
(1.38498 -0.280504 0)
(1.70433 -0.121208 0)
(1.70323 -0.138852 0)
(1.69264 -0.155316 0)
(1.67821 -0.170845 0)
(1.66398 -0.185647 0)
(1.65042 -0.19964 0)
(1.63674 -0.212668 0)
(1.62203 -0.224551 0)
(1.60642 -0.235253 0)
(1.58967 -0.244628 0)
(1.57264 -0.252744 0)
(1.55452 -0.259354 0)
(1.53692 -0.264741 0)
(1.51765 -0.268422 0)
(1.50041 -0.271185 0)
(1.47984 -0.271883 0)
(1.46454 -0.272457 0)
(1.44144 -0.27 0)
(1.4311 -0.269299 0)
(1.40164 -0.262875 0)
(1.71339 -0.109716 0)
(1.71233 -0.127277 0)
(1.70222 -0.143691 0)
(1.6881 -0.158728 0)
(1.67389 -0.172668 0)
(1.66025 -0.185693 0)
(1.64653 -0.197814 0)
(1.63186 -0.20889 0)
(1.61636 -0.218874 0)
(1.59978 -0.227624 0)
(1.58299 -0.235217 0)
(1.56515 -0.241432 0)
(1.5479 -0.246544 0)
(1.52899 -0.250095 0)
(1.51214 -0.252815 0)
(1.49194 -0.253627 0)
(1.477 -0.254319 0)
(1.45428 -0.252203 0)
(1.44419 -0.25167 0)
(1.41521 -0.245901 0)
(1.71462 -0.0998631 0)
(1.71375 -0.116699 0)
(1.70458 -0.132509 0)
(1.69138 -0.146864 0)
(1.67776 -0.159995 0)
(1.66451 -0.172162 0)
(1.65117 -0.183458 0)
(1.63695 -0.193779 0)
(1.62196 -0.203082 0)
(1.60593 -0.21123 0)
(1.58972 -0.218308 0)
(1.57248 -0.224118 0)
(1.55584 -0.228927 0)
(1.53754 -0.232307 0)
(1.52128 -0.234937 0)
(1.50166 -0.23581 0)
(1.48723 -0.236577 0)
(1.46507 -0.234755 0)
(1.45532 -0.234364 0)
(1.42697 -0.229182 0)
(1.71402 -0.0914697 0)
(1.71317 -0.107176 0)
(1.70487 -0.122066 0)
(1.69268 -0.135596 0)
(1.67982 -0.147901 0)
(1.66711 -0.159227 0)
(1.65426 -0.169705 0)
(1.64058 -0.179269 0)
(1.6262 -0.18789 0)
(1.61081 -0.195444 0)
(1.59524 -0.202015 0)
(1.57865 -0.207424 0)
(1.56265 -0.211927 0)
(1.54499 -0.215124 0)
(1.52934 -0.217647 0)
(1.51032 -0.218554 0)
(1.49641 -0.21937 0)
(1.47482 -0.217801 0)
(1.46542 -0.217527 0)
(1.43773 -0.212872 0)
(1.71432 -0.0840178 0)
(1.71321 -0.0984536 0)
(1.70555 -0.11228 0)
(1.69424 -0.124895 0)
(1.68209 -0.136342 0)
(1.6699 -0.146832 0)
(1.65751 -0.156505 0)
(1.64432 -0.165326 0)
(1.63049 -0.173281 0)
(1.61566 -0.180257 0)
(1.60068 -0.186335 0)
(1.58466 -0.19135 0)
(1.56924 -0.195545 0)
(1.55215 -0.198546 0)
(1.53704 -0.200939 0)
(1.51855 -0.20185 0)
(1.50511 -0.202682 0)
(1.48403 -0.20132 0)
(1.47494 -0.201134 0)
(1.44785 -0.196944 0)
(1.71616 -0.0771775 0)
(1.71457 -0.0903285 0)
(1.70731 -0.10303 0)
(1.69672 -0.114671 0)
(1.68518 -0.125236 0)
(1.67343 -0.134893 0)
(1.66142 -0.14378 0)
(1.64863 -0.151876 0)
(1.63523 -0.159182 0)
(1.62088 -0.165592 0)
(1.60638 -0.171186 0)
(1.59084 -0.175808 0)
(1.57589 -0.179689 0)
(1.55927 -0.182479 0)
(1.54461 -0.184725 0)
(1.52658 -0.185612 0)
(1.51352 -0.186434 0)
(1.49288 -0.185243 0)
(1.48406 -0.185122 0)
(1.45748 -0.181346 0)
(1.71932 -0.0707538 0)
(1.71715 -0.0826357 0)
(1.71012 -0.0941865 0)
(1.70008 -0.104824 0)
(1.68905 -0.114492 0)
(1.67766 -0.123321 0)
(1.66595 -0.131434 0)
(1.65346 -0.138822 0)
(1.64041 -0.145491 0)
(1.62642 -0.151345 0)
(1.6123 -0.156461 0)
(1.59715 -0.160693 0)
(1.58258 -0.164255 0)
(1.56634 -0.166827 0)
(1.55205 -0.168911 0)
(1.53438 -0.169756 0)
(1.52164 -0.170549 0)
(1.50136 -0.169503 0)
(1.49276 -0.169428 0)
(1.46662 -0.166031 0)
(1.72339 -0.0645798 0)
(1.7206 -0.0752234 0)
(1.71368 -0.0856287 0)
(1.70406 -0.0952548 0)
(1.69342 -0.104022 0)
(1.68232 -0.112028 0)
(1.67084 -0.119382 0)
(1.65859 -0.126075 0)
(1.6458 -0.132119 0)
(1.6321 -0.137427 0)
(1.61829 -0.14207 0)
(1.60344 -0.145916 0)
(1.58918 -0.14916 0)
(1.57323 -0.151509 0)
(1.55924 -0.153422 0)
(1.54186 -0.154212 0)
(1.52939 -0.154961 0)
(1.50941 -0.154041 0)
(1.50098 -0.153999 0)
(1.47521 -0.150952 0)
(1.72797 -0.0585268 0)
(1.72454 -0.0679772 0)
(1.71764 -0.077262 0)
(1.70834 -0.0858863 0)
(1.69802 -0.0937579 0)
(1.68715 -0.10095 0)
(1.67584 -0.107556 0)
(1.66377 -0.113567 0)
(1.65119 -0.118997 0)
(1.63772 -0.123768 0)
(1.62415 -0.127946 0)
(1.60954 -0.131408 0)
(1.59552 -0.134335 0)
(1.57982 -0.136457 0)
(1.56606 -0.138195 0)
(1.54893 -0.138922 0)
(1.53667 -0.139616 0)
(1.51693 -0.138808 0)
(1.50865 -0.138789 0)
(1.48318 -0.136072 0)
(1.73273 -0.0525168 0)
(1.72868 -0.0608244 0)
(1.72173 -0.0690209 0)
(1.71267 -0.0766604 0)
(1.7026 -0.0836471 0)
(1.69191 -0.0900357 0)
(1.68074 -0.0959039 0)
(1.66881 -0.101245 0)
(1.65639 -0.106072 0)
(1.6431 -0.110315 0)
(1.62972 -0.114033 0)
(1.6153 -0.117116 0)
(1.60148 -0.119727 0)
(1.58597 -0.121623 0)
(1.57241 -0.12318 0)
(1.55547 -0.123838 0)
(1.54339 -0.124471 0)
(1.52385 -0.123764 0)
(1.5157 -0.123761 0)
(1.49048 -0.121357 0)
(1.7374 -0.046504 0)
(1.73277 -0.0537162 0)
(1.72573 -0.0608572 0)
(1.71685 -0.0675324 0)
(1.70699 -0.0736479 0)
(1.69643 -0.0792445 0)
(1.68537 -0.0843873 0)
(1.67354 -0.0890696 0)
(1.66125 -0.0933022 0)
(1.6481 -0.0970248 0)
(1.63487 -0.100289 0)
(1.62061 -0.102998 0)
(1.60695 -0.105294 0)
(1.5916 -0.106964 0)
(1.5782 -0.108339 0)
(1.56142 -0.108924 0)
(1.54948 -0.10949 0)
(1.53011 -0.108877 0)
(1.52206 -0.108883 0)
(1.49705 -0.106783 0)
(1.7418 -0.0404567 0)
(1.73664 -0.0466171 0)
(1.7295 -0.0527351 0)
(1.72075 -0.0584679 0)
(1.71103 -0.063728 0)
(1.70059 -0.0685453 0)
(1.6896 -0.0729742 0)
(1.67785 -0.0770078 0)
(1.66566 -0.0806559 0)
(1.65263 -0.0838655 0)
(1.63952 -0.0866818 0)
(1.62539 -0.0890195 0)
(1.61186 -0.091004 0)
(1.59664 -0.0924474 0)
(1.58336 -0.0936399 0)
(1.56671 -0.0941486 0)
(1.55489 -0.094644 0)
(1.53565 -0.0941204 0)
(1.52769 -0.0941322 0)
(1.50286 -0.0923254 0)
(1.74578 -0.0343558 0)
(1.74015 -0.0395042 0)
(1.7329 -0.0446297 0)
(1.72424 -0.0494419 0)
(1.71465 -0.0538625 0)
(1.70428 -0.0579137 0)
(1.69336 -0.0616398 0)
(1.68167 -0.0650346 0)
(1.66955 -0.0681062 0)
(1.65661 -0.0708096 0)
(1.6436 -0.073183 0)
(1.62956 -0.0751537 0)
(1.61614 -0.0768282 0)
(1.60102 -0.0780467 0)
(1.58785 -0.0790554 0)
(1.5713 -0.079487 0)
(1.55958 -0.0799092 0)
(1.54045 -0.0794708 0)
(1.53256 -0.0794849 0)
(1.50787 -0.0779651 0)
(1.74923 -0.0281936 0)
(1.7432 -0.0323649 0)
(1.73585 -0.036525 0)
(1.72726 -0.0404363 0)
(1.71775 -0.0440324 0)
(1.70745 -0.0473296 0)
(1.69656 -0.0503634 0)
(1.68492 -0.0531285 0)
(1.67286 -0.0556311 0)
(1.65999 -0.0578345 0)
(1.64706 -0.0597695 0)
(1.6331 -0.0613768 0)
(1.61975 -0.0627433 0)
(1.60471 -0.0637383 0)
(1.59162 -0.0645629 0)
(1.57516 -0.0649167 0)
(1.56351 -0.0652637 0)
(1.54448 -0.0649079 0)
(1.53664 -0.064922 0)
(1.51207 -0.0636843 0)
(1.75207 -0.0219771 0)
(1.74571 -0.0251996 0)
(1.73827 -0.0284159 0)
(1.72972 -0.031442 0)
(1.72029 -0.0342257 0)
(1.71003 -0.0367792 0)
(1.69917 -0.0391295 0)
(1.68756 -0.0412724 0)
(1.67555 -0.0432124 0)
(1.66272 -0.044921 0)
(1.64985 -0.0464216 0)
(1.63595 -0.0476688 0)
(1.62267 -0.048729 0)
(1.60769 -0.049502 0)
(1.59466 -0.0501424 0)
(1.57826 -0.0504185 0)
(1.56668 -0.0506886 0)
(1.54771 -0.0504141 0)
(1.53992 -0.050426 0)
(1.51544 -0.049467 0)
(1.75423 -0.0157287 0)
(1.74762 -0.0180239 0)
(1.74012 -0.0203117 0)
(1.7316 -0.0224631 0)
(1.72221 -0.024442 0)
(1.71198 -0.0262581 0)
(1.70114 -0.0279303 0)
(1.68955 -0.0294562 0)
(1.67757 -0.0308375 0)
(1.66478 -0.0320551 0)
(1.65195 -0.0331237 0)
(1.6381 -0.0340134 0)
(1.62486 -0.0347682 0)
(1.60993 -0.0353211 0)
(1.59695 -0.0357761 0)
(1.5806 -0.0359761 0)
(1.56905 -0.0361661 0)
(1.55014 -0.0359746 0)
(1.54238 -0.0359798 0)
(1.51797 -0.0352993 0)
(1.75565 -0.00940272 0)
(1.74889 -0.0107988 0)
(1.74134 -0.0121803 0)
(1.73285 -0.0134734 0)
(1.72349 -0.0146597 0)
(1.71328 -0.0157475 0)
(1.70246 -0.0167487 0)
(1.69089 -0.0176631 0)
(1.67892 -0.01849 0)
(1.66616 -0.0192203 0)
(1.65336 -0.0198592 0)
(1.63953 -0.0203942 0)
(1.62632 -0.0208437 0)
(1.61142 -0.0211792 0)
(1.59847 -0.0214464 0)
(1.58216 -0.0215741 0)
(1.57064 -0.0216783 0)
(1.55177 -0.0215761 0)
(1.54402 -0.0215659 0)
(1.51966 -0.0211697 0)
(1.7563 -0.00300012 0)
(1.74948 -0.00350794 0)
(1.74193 -0.0039973 0)
(1.73346 -0.00444766 0)
(1.72413 -0.00485582 0)
(1.71393 -0.00522716 0)
(1.70312 -0.0055667 0)
(1.69155 -0.00587584 0)
(1.6796 -0.00615407 0)
(1.66685 -0.0063999 0)
(1.65406 -0.00661354 0)
(1.64025 -0.00679368 0)
(1.62705 -0.0069428 0)
(1.61217 -0.00705697 0)
(1.59923 -0.00714368 0)
(1.58294 -0.00719025 0)
(1.57143 -0.00722014 0)
(1.55258 -0.00719259 0)
(1.54483 -0.0071823 0)
(1.5205 -0.00705651 0)
(1.69756 0.130761 -4.26106e-22)
(1.71654 0.105496 0)
(1.73039 0.0790978 2.93247e-22)
(1.7403 0.0517018 9.26375e-21)
(1.7448 0.0235493 -2.75078e-20)
(1.74642 -0.00479315 0)
(1.74318 -0.0338593 -3.43878e-20)
(1.72723 -0.0625267 0)
(1.72317 -0.0914922 -4.09215e-20)
(1.62577 -0.126236 6.29561e-22)
(1.69526 0.116241 -2.58105e-23)
(1.71226 0.0941252 -1.52371e-22)
(1.72553 0.0707973 1.52675e-22)
(1.73338 0.0470502 -2.0485e-21)
(1.74027 0.0219452 8.83035e-21)
(1.73701 -0.00296609 7.2162e-22)
(1.74531 -0.0287317 0)
(1.71917 -0.0560585 2.88488e-20)
(1.74338 -0.0785743 0)
(1.67358 -0.114522 3.45685e-20)
(1.69695 0.102202 2.41075e-22)
(1.71054 0.0824902 0)
(1.7238 0.0616091 1.70112e-22)
(1.72736 0.0403075 -2.05928e-21)
(1.73785 0.0183126 -9.56244e-21)
(1.72794 -0.00477857 0)
(1.74383 -0.0258698 -2.08386e-20)
(1.71438 -0.0529947 -2.95e-20)
(1.73937 -0.0698953 0)
(1.69853 -0.103302 -3.42175e-20)
(1.70102 0.0899785 -1.99052e-22)
(1.71137 0.072077 2.08211e-22)
(1.72485 0.053806 0)
(1.72463 0.0341766 -5.6921e-21)
(1.73694 0.0156758 -4.71138e-22)
(1.72415 -0.00641786 1.04159e-21)
(1.73971 -0.0231992 2.0341e-20)
(1.71564 -0.0492655 6.61722e-22)
(1.73062 -0.0634307 2.31278e-20)
(1.70803 -0.0926597 0)
(1.70632 0.0791993 0)
(1.71448 0.0628351 -2.26428e-22)
(1.7274 0.0471706 3.10211e-22)
(1.72565 0.0288854 -3.28631e-22)
(1.73678 0.0134845 2.59845e-22)
(1.72538 -0.00736576 4.65065e-22)
(1.7357 -0.0214109 1.37204e-20)
(1.71896 -0.045126 1.18072e-21)
(1.72483 -0.05848 -3.96104e-21)
(1.70998 -0.0837345 -2.19934e-20)
(1.71221 0.0696025 6.76418e-22)
(1.71931 0.054649 4.04077e-23)
(1.73066 0.0411676 -6.468e-22)
(1.72932 0.0242871 -2.62111e-23)
(1.73751 0.0110396 2.9561e-21)
(1.72916 -0.00801846 0)
(1.73395 -0.0207456 -1.51572e-20)
(1.72212 -0.0416026 4.52576e-22)
(1.72292 -0.0546092 -3.58833e-20)
(1.71019 -0.0765491 4.03458e-20)
(1.71845 0.0609606 -6.79746e-22)
(1.72518 0.0474285 -1.01099e-21)
(1.7345 0.0355937 3.9191e-22)
(1.73426 0.0203196 -6.94192e-23)
(1.73951 0.00842821 -1.15784e-21)
(1.73369 -0.00852821 3.25429e-21)
(1.73493 -0.0205296 -3.62858e-22)
(1.7253 -0.0387097 7.94226e-22)
(1.72404 -0.0511248 1.58517e-20)
(1.71149 -0.0704127 -1.83876e-20)
(1.72493 0.0531486 0)
(1.73148 0.0410632 2.37943e-21)
(1.73896 0.030478 -1.56648e-22)
(1.73958 0.0169076 -5.04698e-22)
(1.7428 0.00599761 -1.12446e-21)
(1.73837 -0.00888671 -5.1305e-21)
(1.73795 -0.0201682 3.14003e-21)
(1.72911 -0.0360956 0)
(1.72711 -0.0476624 0)
(1.71445 -0.0648306 0)
(1.73155 0.0461074 0)
(1.73781 0.0354306 -2.59327e-21)
(1.74394 0.0258889 -1.39266e-22)
(1.74493 0.0139563 5.31486e-22)
(1.747 0.00394685 -5.90947e-22)
(1.74316 -0.00909434 2.21722e-21)
(1.7421 -0.0195205 -3.68077e-21)
(1.73364 -0.0335968 2.07847e-22)
(1.73124 -0.0442173 0)
(1.71874 -0.0596 -5.17042e-21)
(1.73815 0.0397865 1.16108e-22)
(1.744 0.0304218 1.5306e-21)
(1.74918 0.0218439 2.07984e-21)
(1.75021 0.0113927 1.54111e-25)
(1.75166 0.00230352 1.05239e-22)
(1.74808 -0.00915547 1.72835e-22)
(1.74671 -0.0186437 -1.52395e-21)
(1.73863 -0.0311492 1.43312e-22)
(1.7359 -0.0407971 0)
(1.7239 -0.0545815 9.21472e-21)
(1.74456 0.0341239 0)
(1.74993 0.0259542 1.84741e-21)
(1.75443 0.018311 3.62536e-22)
(1.75536 0.00917782 0)
(1.75643 0.00102996 0)
(1.75303 -0.00904841 -8.37066e-23)
(1.75143 -0.0175708 1.28799e-21)
(1.74382 -0.0286694 1.47534e-22)
(1.74077 -0.0373373 -4.54531e-23)
(1.72949 -0.0496433 -4.15352e-21)
(1.75061 0.0290477 0)
(1.75552 0.0219648 -3.64889e-21)
(1.75948 0.0152358 -3.10058e-21)
(1.76031 0.00729046 3.58726e-22)
(1.76106 8.53611e-05 -2.03389e-22)
(1.75788 -0.00874252 -3.29536e-23)
(1.75606 -0.0162987 -3.84365e-24)
(1.74901 -0.0260871 -5.98284e-22)
(1.74562 -0.0337845 -1.67081e-22)
(1.73519 -0.0446989 7.19065e-23)
(1.7562 0.0244855 0)
(1.7607 0.0184006 2.01443e-21)
(1.76421 0.0125609 -1.74499e-22)
(1.76496 0.00571005 1.73055e-22)
(1.76543 -0.000566368 0)
(1.7625 -0.00822622 0)
(1.76045 -0.0148311 0)
(1.75399 -0.0233751 7.26204e-22)
(1.75028 -0.0301229 -8.96499e-22)
(1.74071 -0.0397048 0)
(1.76123 0.0203784 0)
(1.76539 0.0152195 1.38131e-21)
(1.76851 0.0102389 1.55304e-21)
(1.76922 0.00441496 1.65653e-21)
(1.76944 -0.000956493 -2.7918e-22)
(1.76676 -0.00750622 1.20648e-21)
(1.76452 -0.0131822 -6.33686e-22)
(1.75861 -0.0205303 0)
(1.75461 -0.0263497 5.37402e-22)
(1.74587 -0.0346357 1.06381e-21)
(1.76565 0.0166381 -3.58939e-22)
(1.76951 0.01236 -1.13852e-21)
(1.77231 0.00821409 -2.01388e-21)
(1.773 0.00336915 -1.17292e-21)
(1.77301 -0.001122 0)
(1.77057 -0.00660356 -1.46592e-21)
(1.76815 -0.0113727 9.65632e-22)
(1.76276 -0.0175582 -7.69054e-23)
(1.7585 -0.0224667 3.97001e-22)
(1.75052 -0.0294777 -1.29737e-21)
(1.7694 0.0131816 3.60783e-22)
(1.77303 0.00976311 -9.54455e-22)
(1.77556 0.00643335 7.26289e-22)
(1.77625 0.00253244 -1.57755e-21)
(1.77609 -0.00110046 0)
(1.77386 -0.00554444 0)
(1.7713 -0.00942498 1.05338e-22)
(1.76635 -0.0144702 -8.26774e-22)
(1.76186 -0.0184818 -2.85128e-23)
(1.75454 -0.0242282 2.69877e-22)
(1.77248 0.00998347 0)
(1.77592 0.00739465 1.52089e-21)
(1.77823 0.00485605 -4.80853e-22)
(1.77891 0.00186812 1.44875e-21)
(1.77861 -0.000927861 3.54925e-22)
(1.77656 -0.00435904 -1.93784e-22)
(1.77389 -0.00736764 3.16007e-22)
(1.7693 -0.0112885 5.48878e-22)
(1.76463 -0.0144154 0)
(1.75784 -0.0189 0)
(1.77482 0.00701071 0)
(1.77812 0.00521634 6.46435e-22)
(1.78026 0.00344511 -1.03995e-21)
(1.78094 0.00134473 0)
(1.78054 -0.000633202 -6.65167e-22)
(1.77863 -0.00307368 -2.10052e-22)
(1.77587 -0.00522658 -5.05022e-22)
(1.77156 -0.00803913 -8.58795e-23)
(1.76675 -0.010294 6.40321e-23)
(1.76035 -0.0135226 1.86544e-23)
(1.77641 0.00420805 0)
(1.7796 0.00318997 -6.49543e-22)
(1.78162 0.00218372 -5.1532e-22)
(1.78229 0.000967059 6.30407e-22)
(1.78183 -0.000193141 2.8428e-22)
(1.78001 -0.00164956 2.57962e-22)
(1.77719 -0.00295082 8.62108e-22)
(1.77307 -0.00466485 -4.94272e-22)
(1.76816 -0.00605742 9.35842e-23)
(1.76201 -0.00804256 0)
(1.77719 0.00132236 0)
(1.78032 0.00109768 3.05202e-22)
(1.78229 0.000867142 -2.78289e-22)
(1.78296 0.000545025 2.45788e-22)
(1.78246 0.000216746 0)
(1.78069 -0.000237994 -2.59258e-22)
(1.77784 -0.00066687 1.60579e-22)
(1.77379 -0.00125829 9.29391e-23)
(1.76882 -0.00176412 0)
(1.76277 -0.00248317 0)
(1.19561 0.318583 0)
(1.16698 0.349992 -4.33192e-20)
(1.1462 0.38982 0)
(1.13005 0.439385 -1.41809e-19)
(1.1157 0.498472 5.64874e-20)
(1.10174 0.569203 2.82339e-21)
(1.08605 0.652744 3.78749e-20)
(1.04976 0.737681 -1.03223e-20)
(0.91837 0.756971 0)
(0.53131 0.475957 2.57142e-20)
(1.25961 0.319544 7.76026e-20)
(1.23531 0.35787 4.33174e-20)
(1.22144 0.396621 -3.81595e-20)
(1.21141 0.444799 4.78916e-20)
(1.20317 0.503248 -3.42361e-20)
(1.19672 0.573153 9.97204e-21)
(1.18968 0.654966 -4.13755e-20)
(1.15984 0.735476 -7.36195e-20)
(1.02185 0.746186 -1.92955e-20)
(0.588063 0.457505 -3.59433e-20)
(1.32277 0.314924 -3.16727e-20)
(1.30523 0.354649 3.20755e-20)
(1.29675 0.392671 3.81577e-20)
(1.29131 0.440097 3.79433e-20)
(1.28858 0.49778 3.71472e-20)
(1.28936 0.566095 3.53036e-20)
(1.29015 0.644636 1.15877e-20)
(1.26472 0.718 2.52003e-20)
(1.11667 0.718027 1.15288e-21)
(0.634417 0.426192 -1.23068e-21)
(1.38719 0.3068 6.35253e-20)
(1.37509 0.345652 -3.20739e-20)
(1.37038 0.382058 0)
(1.36863 0.427724 0)
(1.3709 0.483354 0)
(1.37821 0.548742 1.687e-20)
(1.38542 0.622288 -6.76252e-21)
(1.36135 0.685939 0)
(1.19909 0.673797 -6.85225e-21)
(0.666551 0.383651 1.71195e-20)
(1.44921 0.294654 -8.58543e-21)
(1.4416 0.331371 3.7614e-20)
(1.4401 0.365723 0)
(1.44182 0.408832 0)
(1.44871 0.461146 5.86238e-21)
(1.46163 0.522229 3.11276e-21)
(1.47322 0.589488 9.77602e-21)
(1.44705 0.64044 -6.8554e-21)
(1.2635 0.614685 -2.91318e-20)