/*--------------------------------*- C++ -*----------------------------------*\
| =========                 |                                                 |
| \\      /  F ield         | OpenFOAM: The Open Source CFD Toolbox           |
|  \\    /   O peration     | Version:  4.1                                   |
|   \\  /    A nd           | Web:      www.OpenFOAM.org                      |
|    \\/     M anipulation  |                                                 |
\*---------------------------------------------------------------------------*/
FoamFile
{
    version     2.0;
    format      ascii;
    class       volScalarField;
    location    "11.8";
    object      p;
}
// * * * * * * * * * * * * * * * * * * * * * * * * * * * * * * * * * * * * * //

dimensions      [0 2 -2 0 0 0 0];

internalField   nonuniform List<scalar> 
2000
(
0.0829599
0.0914935
0.0999134
0.108047
0.115272
0.121385
0.126616
0.130113
0.133688
0.130615
0.0670245
0.0789046
0.0894916
0.0993937
0.108288
0.116054
0.122773
0.128235
0.133142
0.134614
0.0472866
0.063138
0.0761023
0.0880636
0.0992376
0.109494
0.118786
0.127048
0.134514
0.140581
0.0237365
0.0440844
0.0596897
0.074396
0.0889739
0.102914
0.115817
0.127478
0.138193
0.146992
-0.00299049
0.0221507
0.0408837
0.0596284
0.0791387
0.0979904
0.115275
0.130773
0.144529
0.156134
-0.0314152
-0.00149891
0.0213991
0.0460073
0.0719654
0.0965995
0.118665
0.138004
0.1548
0.169115
-0.0589844
-0.0247726
0.00407406
0.0364497
0.0698536
0.100558
0.127337
0.150335
0.169995
0.186959
-0.0822317
-0.0445278
-0.00765233
0.0338896
0.0749606
0.11143
0.142513
0.168789
0.19113
0.210596
-0.0973528
-0.0567884
-0.0104322
0.0407552
0.0889939
0.130503
0.165229
0.19427
0.218934
0.240439
-0.100847
-0.0576284
-0.0013518
0.0588347
0.113167
0.158725
0.196289
0.227466
0.253929
0.276763
0.141086
0.136973
0.134783
0.132716
0.130381
0.127789
0.124951
0.121853
0.118419
0.114463
0.139486
0.135708
0.133709
0.131782
0.129594
0.12717
0.12453
0.121692
0.118613
0.11488
0.136521
0.133402
0.131767
0.130156
0.128303
0.126253
0.12404
0.121716
0.119331
0.116223
0.132617
0.130372
0.129301
0.128225
0.126941
0.125513
0.123988
0.122418
0.121
0.119423
0.128174
0.126916
0.126618
0.126323
0.12586
0.125295
0.124701
0.124133
0.123951
0.124043
0.123409
0.123186
0.123873
0.124601
0.125173
0.125641
0.126111
0.126668
0.127863
0.13049
0.118258
0.119125
0.121005
0.122957
0.124725
0.126301
0.12785
0.129466
0.131497
0.138089
0.11233
0.114485
0.117689
0.121057
0.12413
0.126844
0.129406
0.132015
0.134082
0.144507
0.104932
0.108763
0.11347
0.118361
0.122796
0.126612
0.130086
0.133461
0.135706
0.14675
0.0954055
0.10128
0.107737
0.114221
0.120017
0.124919
0.129199
0.132577
0.135586
0.141184
0.109911
0.105083
0.0998554
0.0942292
0.0882474
0.0819576
0.075419
0.0687024
0.0618882
0.055063
0.0483169
0.0417384
0.0354093
0.0294
0.023766
0.0185405
0.0137096
0.00920534
0.00503353
0.00147869
0.10989
0.105116
0.0999491
0.0943273
0.0883212
0.0819856
0.075381
0.068581
0.0616696
0.0547386
0.0478838
0.0412012
0.0347808
0.0287022
0.0230313
0.0178111
0.0130243
0.00856719
0.00444657
0.0011676
0.110348
0.105681
0.100637
0.0950161
0.0889536
0.082522
0.075783
0.0688137
0.0617038
0.0545527
0.0474665
0.0405539
0.0339207
0.0276643
0.0218709
0.0166068
0.0118687
0.00751684
0.0035113
0.000644176
0.111595
0.107356
0.102536
0.0969002
0.0907582
0.0841985
0.0772784
0.0700765
0.0626875
0.0552186
0.0477863
0.0405136
0.0335255
0.0269432
0.0208791
0.0154328
0.0106492
0.00640731
0.00255644
-1.96055e-05
0.114965
0.110325
0.105861
0.100339
0.0941195
0.0874257
0.0803239
0.0728784
0.0651824
0.0573495
0.0495058
0.0417864
0.0343334
0.02729
0.0207912
0.0149752
0.00994057
0.00566865
0.00194346
-0.000700037
0.119276
0.114072
0.110192
0.105031
0.0988048
0.0920197
0.0848091
0.0771952
0.0692508
0.0610955
0.0528643
0.0446997
0.0367537
0.0291862
0.0221579
0.0158232
0.0103245
0.00574444
0.00199168
-0.000714034
0.123806
0.117629
0.114664
0.110256
0.104156
0.0973599
0.0901639
0.082512
0.0744322
0.0660557
0.0575306
0.0490035
0.0406297
0.0325776
0.0250203
0.0181278
0.0120616
0.00695733
0.00291678
-0.000175685
0.127673
0.120277
0.118527
0.115128
0.10928
0.10262
0.095611
0.088075
0.0799979
0.0715367
0.0628522
0.0540879
0.0453978
0.036955
0.0289393
0.0215266
0.0148902
0.0091461
0.00452306
0.000663328
0.130078
0.122529
0.122181
0.11948
0.113936
0.107665
0.100964
0.0935439
0.0854628
0.0769436
0.0681529
0.0592248
0.0503063
0.041568
0.0331863
0.0253264
0.018163
0.0117634
0.00636346
0.00156266
0.127145
0.124932
0.125336
0.121933
0.117163
0.112082
0.106164
0.0991765
0.0913479
0.0829443
0.0741381
0.0650776
0.0559225
0.0468513
0.0380448
0.0296618
0.021876
0.0147266
0.00839105
0.00250544
0.136028
0.136623
0.131342
0.125358
0.120026
0.11462
0.108436
0.101351
0.0935375
0.0851924
0.0764609
0.0674804
0.0583909
0.0493504
0.0405163
0.0320225
0.0240135
0.0165034
0.00961313
0.0030439
0.133988
0.134669
0.13039
0.124849
0.119502
0.114017
0.107869
0.100922
0.0932928
0.0851602
0.0766642
0.0679343
0.0590883
0.0502614
0.0415811
0.0331592
0.0251043
0.0174261
0.0102027
0.00323744
0.136072
0.134738
0.131075
0.125988
0.120409
0.11451
0.108101
0.101074
0.0934738
0.085433
0.0770701
0.0685041
0.0598274
0.0511578
0.0425832
0.0342102
0.0260924
0.0182816
0.0107709
0.00353173
0.140601
0.136947
0.133011
0.127998
0.122133
0.115772
0.109001
0.101793
0.0941413
0.0861235
0.0778224
0.0693477
0.0607649
0.0521862
0.0436532
0.035287
0.0270714
0.0191312
0.0113367
0.00385155
0.146322
0.140869
0.135985
0.130536
0.124284
0.117486
0.110338
0.102886
0.0951104
0.08705
0.0787469
0.0703004
0.0617482
0.0532042
0.0446651
0.0362735
0.0279443
0.0198747
0.0118191
0.00411007
0.152931
0.14595
0.13979
0.133558
0.126801
0.119576
0.112046
0.104302
0.0963329
0.088161
0.0797935
0.0713166
0.0627405
0.0541817
0.0455991
0.037153
0.0287044
0.0205014
0.0122209
0.00430376
0.15994
0.151572
0.144126
0.136985
0.129635
0.121962
0.114045
0.105977
0.0977624
0.0894219
0.0809373
0.0723811
0.0637379
0.0551232
0.0464683
0.0379424
0.0293724
0.0210314
0.0125597
0.00444311
0.166872
0.157347
0.148767
0.140724
0.132727
0.124574
0.116255
0.107845
0.0993524
0.0908015
0.0821587
0.0734836
0.0647394
0.0560362
0.0472869
0.0386608
0.0299682
0.0214863
0.0128481
0.00454227
0.173561
0.163119
0.15357
0.144671
0.136008
0.127346
0.118614
0.109852
0.101063
0.0922741
0.0834426
0.0746176
0.0657462
0.0569295
0.048069
0.0393277
0.0305108
0.0218874
0.0130997
0.00461759
0.179994
0.168799
0.158406
0.148712
0.139392
0.130212
0.121062
0.111946
0.102854
0.0938115
0.084771
0.0757742
0.0667563
0.0578082
0.0488241
0.0399579
0.0310152
0.0222522
0.0133261
0.00468143
0.186111
0.174287
0.163155
0.152732
0.142784
0.133098
0.123536
0.114073
0.10468
0.0953782
0.0861186
0.0769367
0.0677601
0.0586696
0.0495544
0.0405581
0.0314896
0.0225906
0.0135344
0.0047398
0.1918
0.179477
0.167707
0.156625
0.146093
0.135926
0.125971
0.116174
0.10649
0.0969328
0.0874529
0.0780813
0.0687409
0.0595028
0.0502539
0.0411264
0.0319346
0.0229046
0.0137266
0.00479281
0.196967
0.184274
0.171968
0.160298
0.149232
0.138621
0.1283
0.118191
0.108232
0.0984308
0.0887377
0.0791788
0.0696765
0.0602912
0.0509111
0.0416549
0.0323456
0.0231904
0.0139006
0.00483642
0.201565
0.1886
0.17585
0.16367
0.152128
0.141115
0.130461
0.120067
0.109856
0.0998294
0.0899367
0.0801996
0.0705432
0.0610162
0.0515122
0.0421325
0.0327155
0.0234414
0.014053
0.00486504
0.205572
0.192388
0.17928
0.166674
0.154722
0.143355
0.132405
0.121757
0.111322
0.101092
0.0910186
0.0811176
0.0713203
0.0616611
0.0520448
0.0425497
0.0330376
0.0236525
0.0141807
0.00487511
0.208967
0.195592
0.182203
0.169258
0.156969
0.145299
0.134093
0.123224
0.112597
0.102189
0.0919591
0.0819128
0.0719915
0.0622137
0.0524997
0.0429007
0.0333082
0.0238222
0.014283
0.0048679
0.211725
0.198176
0.184578
0.171382
0.158829
0.146914
0.135493
0.124442
0.113655
0.1031
0.0927391
0.0825702
0.0725454
0.0626662
0.0528714
0.0431831
0.0335259
0.0239526
0.0143612
0.00484947
0.213829
0.200121
0.186368
0.173
0.160258
0.148162
0.136585
0.125385
0.114472
0.103802
0.0933406
0.0830758
0.0729709
0.0630118
0.0531549
0.0433958
0.0336899
0.0240469
0.0144176
0.00482756
0.215337
0.201468
0.187568
0.174072
0.161211
0.148996
0.137312
0.12602
0.115025
0.104278
0.0937485
0.0834182
0.0732588
0.0632447
0.0533458
0.0435378
0.0337994
0.0241078
0.0144537
0.00480856
0.216342
0.202387
0.188344
0.174688
0.161718
0.149431
0.137689
0.126349
0.115312
0.104524
0.0939597
0.0835949
0.0734071
0.0633643
0.0534437
0.0436103
0.0338552
0.0241388
0.0144719
0.00479883
0.294845
0.25833
0.227528
0.202275
0.182422
0.167164
0.155811
0.146682
0.140309
0.127453
0.309658
0.273897
0.243321
0.217431
0.196292
0.17853
0.164779
0.150999
0.143086
0.128655
0.323031
0.288332
0.258407
0.232203
0.210299
0.190295
0.174874
0.158197
0.150059
0.136242
0.334996
0.301287
0.271969
0.245486
0.2232
0.201923
0.186026
0.168712
0.159661
0.145184
0.345614
0.312746
0.283951
0.257341
0.234988
0.213296
0.197135
0.179452
0.168361
0.153075
0.355031
0.322927
0.294646
0.268133
0.245837
0.224005
0.207169
0.188894
0.176187
0.160747
0.363391
0.332028
0.30426
0.277987
0.2557
0.233754
0.216204
0.197657
0.184249
0.168768
0.370814
0.340165
0.312881
0.286904
0.264602
0.242659
0.224737
0.206253
0.192457
0.176731
0.377382
0.347405
0.32057
0.294925
0.272676
0.25089
0.232844
0.21444
0.200221
0.184283
0.383163
0.353811
0.327396
0.302118
0.279999
0.258433
0.240313
0.22194
0.207337
0.1914
0.38823
0.35946
0.333434
0.308531
0.286571
0.265229
0.247038
0.228746
0.213875
0.198074
0.392621
0.364415
0.338741
0.314204
0.292402
0.271291
0.253058
0.234925
0.219859
0.2042
0.396376
0.368691
0.343351
0.319177
0.297532
0.27667
0.25843
0.240476
0.225246
0.209683
0.39953
0.372324
0.34731
0.323495
0.302012
0.281403
0.263175
0.245382
0.230013
0.214511
0.402148
0.375387
0.350678
0.327209
0.305884
0.285514
0.267305
0.249653
0.234166
0.218722
0.404286
0.377931
0.353498
0.330348
0.309168
0.289023
0.270827
0.253317
0.237711
0.222339
0.405972
0.379981
0.355787
0.332926
0.311871
0.291939
0.273745
0.256379
0.240641
0.22534
0.4072
0.381534
0.35755
0.334949
0.314004
0.294269
0.276073
0.258839
0.24296
0.227696
0.407915
0.382535
0.358746
0.33638
0.315551
0.295998
0.277819
0.260699
0.244711
0.229442
0.408078
0.382888
0.359241
0.337054
0.316336
0.296931
0.278802
0.261782
0.245766
0.230518
0.848873
0.850617
0.845161
0.833767
0.817417
0.795593
0.765805
0.724702
0.673831
0.645537
0.800127
0.797944
0.784743
0.766851
0.745173
0.717591
0.680773
0.631225
0.57059
0.53514
0.745809
0.738283
0.719083
0.696128
0.66957
0.636293
0.592622
0.535125
0.46543
0.423469
0.683186
0.671487
0.64876
0.622355
0.591716
0.553318
0.503501
0.439142
0.361594
0.314466
0.616973
0.601882
0.576693
0.547632
0.51355
0.470768
0.415786
0.346131
0.26254
0.212377
0.550988
0.532766
0.505625
0.474435
0.437527
0.391187
0.332064
0.258635
0.172328
0.121267
0.48718
0.466171
0.43767
0.40499
0.366021
0.317157
0.255211
0.179148
0.0955042
0.0438149
0.426829
0.403626
0.37454
0.341171
0.30107
0.250933
0.187986
0.112255
0.032924
-0.0179057
0.371065
0.346498
0.317847
0.28458
0.244244
0.194226
0.132364
0.0595325
-0.0138803
-0.0625598
0.320052
0.296467
0.268712
0.236101
0.196624
0.148183
0.0892373
0.0216539
-0.0439383
-0.0898992
1.11206
1.12281
1.13487
1.14826
1.16295
1.17879
1.19526
1.21094
1.22486
1.24327
1.10938
1.1195
1.13109
1.14394
1.15796
1.17297
1.18843
1.20289
1.2154
1.23299
1.10372
1.11258
1.12322
1.13503
1.14772
1.16108
1.17451
1.18652
1.19635
1.21213
1.0945
1.10147
1.11072
1.12099
1.13173
1.14266
1.15312
1.1615
1.16738
1.18038
1.08097
1.08542
1.09288
1.10117
1.10938
1.11717
1.12375
1.1274
1.12806
1.13736
1.06227
1.06359
1.06887
1.0748
1.07997
1.08396
1.08586
1.08378
1.07804
1.0827
1.03759
1.03523
1.0381
1.04137
1.04304
1.04261
1.03907
1.03035
1.01709
1.01626
1.00564
0.999118
0.999685
1.00025
0.998089
0.992771
0.983205
0.967079
0.945349
0.938274
0.965815
0.955449
0.954282
0.951833
0.945258
0.934554
0.918477
0.894347
0.863348
0.849464
0.913099
0.903518
0.902152
0.896311
0.884901
0.868552
0.845642
0.813084
0.772239
0.751212
1.00149
1.00476
1.0086
1.01263
1.01665
1.02069
1.02483
1.02909
1.03351
1.03813
1.04294
1.04798
1.05328
1.05891
1.06491
1.07133
1.07824
1.08569
1.09376
1.10254
1.0015
1.00478
1.00861
1.0126
1.0166
1.02061
1.02471
1.02894
1.03333
1.03789
1.04264
1.0476
1.05283
1.05836
1.06423
1.0705
1.07722
1.08445
1.09222
1.10063
1.00153
1.00483
1.0086
1.01253
1.01646
1.02042
1.02445
1.02861
1.0329
1.03735
1.04197
1.04679
1.05184
1.05715
1.06276
1.06871
1.07503
1.08176
1.0889
1.09654
1.00157
1.00487
1.00854
1.01237
1.01621
1.02007
1.024
1.02804
1.03219
1.03645
1.04084
1.0454
1.05015
1.0551
1.06027
1.06568
1.07134
1.07726
1.08335
1.08972
1.0016
1.00489
1.00843
1.0121
1.01578
1.01948
1.02323
1.02705
1.03102
1.03501
1.03908
1.04326
1.04756
1.05196
1.05648
1.06108
1.06574
1.07044
1.07497
1.07944
1.00161
1.00485
1.00821
1.01166
1.01514
1.01865
1.02219
1.02579
1.02933
1.0329
1.03652
1.04017
1.04383
1.04747
1.05104
1.05451
1.05776
1.06074
1.0631
1.06487
1.00157
1.00473
1.00786
1.01101
1.01418
1.01737
1.02065
1.02382
1.02691
1.02997
1.033
1.03595
1.03875
1.04135
1.04366
1.04556
1.04692
1.04754
1.047
1.04514
1.00146
1.00442
1.00727
1.01012
1.013
1.01586
1.01854
1.02117
1.02373
1.02616
1.02843
1.03044
1.03214
1.03338
1.03408
1.03399
1.03294
1.03048
1.02619
1.01947
1.00131
1.00399
1.00653
1.00892
1.01128
1.01358
1.0158
1.01787
1.01977
1.02141
1.02272
1.02358
1.02388
1.02338
1.022
1.01933
1.01538
1.00914
1.0007
0.987447
1.00112
1.00328
1.00531
1.00724
1.00909
1.01086
1.01248
1.01387
1.01495
1.0156
1.01575
1.0152
1.01386
1.01131
1.00755
1.00153
0.993634
0.981308
0.966681
0.943194
1.00073
1.00243
1.00404
1.00541
1.00661
1.00768
1.00856
1.00912
1.00926
1.00881
1.00768
1.00559
1.00242
0.997586
0.991083
0.981501
0.969337
0.950693
0.927396
0.886527
1.00042
1.00152
1.00252
1.00327
1.00381
1.00418
1.00434
1.0041
1.00332
1.0018
0.999472
0.995974
0.991259
0.984585
0.976094
0.964151
0.949564
0.928563
0.904292
0.869603
1.00064
1.00097
1.00105
1.00093
1.00067
1.00033
0.999807
0.998783
0.997097
0.994532
0.991063
0.986289
0.980219
0.972027
0.962007
0.948477
0.932606
0.910981
0.887311
0.854863
0.999983
1.00057
1.00026
0.998846
0.997424
0.996323
0.995142
0.993337
0.990724
0.987115
0.982548
0.976583
0.969285
0.959774
0.948498
0.933768
0.917048
0.89498
0.871567
0.839969
0.998768
0.999327
0.998375
0.995662
0.993422
0.991892
0.990242
0.987716
0.9842
0.979591
0.974001
0.966951
0.958559
0.947913
0.935603
0.919935
0.902576
0.880184
0.856945
0.826298
1.00126
0.999974
0.995214
0.99108
0.988735
0.987263
0.985293
0.982039
0.97762
0.972064
0.965542
0.957516
0.948155
0.936537
0.923367
0.906976
0.889136
0.866629
0.843616
0.814027
0.995541
0.992648
0.988981
0.985434
0.984022
0.983097
0.980766
0.976596
0.971194
0.96473
0.95735
0.94844
0.938202
0.925743
0.911844
0.894911
0.876715
0.854272
0.831494
0.802932
0.99975
0.987131
0.97548
0.974479
0.977777
0.97895
0.976397
0.971204
0.964845
0.957593
0.949473
0.939786
0.928764
0.915591
0.901076
0.883752
0.865294
0.843031
0.82046
0.792868
0.996468
0.975067
0.961455
0.965355
0.973444
0.976181
0.97295
0.966525
0.959156
0.951115
0.942251
0.931811
0.920045
0.906241
0.891186
0.873576
0.854909
0.832884
0.81048
0.783791
0.995958
0.970991
0.956722
0.962904
0.972442
0.974729
0.970188
0.962562
0.954277
0.945447
0.935797
0.924598
0.912125
0.897769
0.882247
0.864427
0.845589
0.823819
0.801558
0.775673
0.999406
0.982479
0.972251
0.974834
0.977881
0.97528
0.968271
0.959544
0.950482
0.940811
0.930262
0.918259
0.905102
0.890257
0.874332
0.856345
0.837369
0.815827
0.793698
0.768482
0.993794
1.00006
1.00767
1.00303
0.991504
0.979132
0.968133
0.958114
0.948217
0.937532
0.925908
0.913001
0.899146
0.883829
0.867538
0.849383
0.830287
0.808902
0.786904
0.762183
1.0027
1.0245
1.03629
1.02376
1.0014
0.981759
0.967699
0.956763
0.946276
0.934748
0.922172
0.90846
0.89401
0.878294
0.861715
0.843403
0.824229
0.802929
0.781085
0.756676
1.0077
1.0373
1.05052
1.03398
1.00601
0.982324
0.966561
0.95519
0.944364
0.93221
0.918884
0.904522
0.889595
0.873547
0.856738
0.838279
0.819058
0.797793
0.776115
0.751903
1.00897
1.04301
1.05811
1.03859
1.00664
0.980608
0.964265
0.952926
0.941999
0.929481
0.915677
0.900887
0.885622
0.869325
0.852328
0.833766
0.814512
0.793313
0.771778
0.7478
1.00399
1.04118
1.06302
1.04282
1.00703
0.978783
0.96159
0.94994
0.938832
0.92621
0.912288
0.897353
0.881896
0.865438
0.848283
0.829695
0.810411
0.789374
0.767923
0.744315
0.97959
0.989598
1.0161
1.01625
0.999169
0.978988
0.96207
0.94823
0.935706
0.922934
0.909304
0.894448
0.878808
0.862186
0.844846
0.826261
0.806926
0.786106
0.76468
0.741487
1.00061
0.952965
0.91797
0.932887
0.958646
0.967629
0.959644
0.94518
0.93105
0.91817
0.905315
0.891358
0.87607
0.859497
0.842046
0.823506
0.804151
0.783555
0.762163
0.739313
1.0044
0.954331
0.909951
0.919801
0.94772
0.960312
0.955286
0.942667
0.929181
0.91632
0.903384
0.889424
0.874182
0.857684
0.840194
0.821683
0.802304
0.78186
0.760507
0.737909
0.976641
0.989603
1.0178
1.00872
0.982399
0.962536
0.95105
0.941355
0.930039
0.917076
0.903212
0.888662
0.873269
0.85681
0.839318
0.820819
0.801402
0.781027
0.759699
0.737286
0.842614
0.790718
0.737466
0.679354
0.617395
0.555547
0.49588
0.439052
0.385871
0.337264
0.83595
0.78249
0.726489
0.671103
0.613131
0.554661
0.498461
0.445132
0.39545
0.35026
0.824169
0.772997
0.71634
0.663177
0.609618
0.554861
0.501775
0.451549
0.404896
0.361946
0.811662
0.764201
0.708354
0.656331
0.606247
0.555115
0.504913
0.457299
0.413146
0.372243
0.79961
0.755548
0.70146
0.650372
0.602942
0.555249
0.507888
0.462547
0.42051
0.381376
0.78828
0.747121
0.6954
0.645465
0.600022
0.555312
0.510675
0.4674
0.427148
0.389509
0.777725
0.739011
0.689922
0.641445
0.597571
0.555312
0.513192
0.471849
0.433133
0.396762
0.767959
0.731316
0.684927
0.638175
0.595653
0.555341
0.515426
0.475881
0.438522
0.403237
0.759012
0.724119
0.680375
0.635522
0.594244
0.555448
0.517374
0.479465
0.443331
0.408999
0.750922
0.717502
0.676245
0.633354
0.593259
0.555637
0.519034
0.482567
0.447557
0.414091
0.743747
0.71156
0.672533
0.63154
0.592567
0.555867
0.520403
0.485167
0.451173
0.418539
0.737536
0.706378
0.669228
0.62994
0.592007
0.556059
0.521476
0.48727
0.454154
0.422215
0.732241
0.701941
0.666273
0.62841
0.591416
0.556125
0.522249
0.488914
0.456611
0.425398
0.727758
0.698139
0.66358
0.626854
0.590693
0.556011
0.522743
0.49016
0.458603
0.428077
0.723861
0.694719
0.661013
0.625231
0.589831
0.555734
0.523008
0.491073
0.460167
0.43026
0.720343
0.691474
0.658505
0.623601
0.588925
0.555377
0.523118
0.491724
0.461363
0.432001
0.717252
0.688484
0.656169
0.62209
0.588081
0.555009
0.523125
0.492157
0.462234
0.433337
0.714767
0.685977
0.654152
0.620742
0.587273
0.554575
0.522972
0.492338
0.46277
0.434265
0.713156
0.68427
0.652681
0.619639
0.58647
0.553983
0.522556
0.492165
0.462884
0.434717
0.712481
0.683558
0.652032
0.619062
0.585915
0.55343
0.522024
0.491732
0.462599
0.434645
)
;

boundaryField
{
    bottom
    {
        type            symmetryPlane;
    }
    right
    {
        type            fixedValue;
        value           uniform 0;
    }
    top
    {
        type            symmetryPlane;
    }
    left
    {
        type            fixedValue;
        value           uniform 1;
    }
    cylinder
    {
        type            zeroGradient;
    }
    defaultFaces
    {
        type            empty;
    }
}


// ************************************************************************* //
