/*--------------------------------*- C++ -*----------------------------------*\
| =========                 |                                                 |
| \\      /  F ield         | OpenFOAM: The Open Source CFD Toolbox           |
|  \\    /   O peration     | Version:  4.1                                   |
|   \\  /    A nd           | Web:      www.OpenFOAM.org                      |
|    \\/     M anipulation  |                                                 |
\*---------------------------------------------------------------------------*/
FoamFile
{
    version     2.0;
    format      ascii;
    class       volScalarField;
    location    "1.5";
    object      p;
}
// * * * * * * * * * * * * * * * * * * * * * * * * * * * * * * * * * * * * * //

dimensions      [0 2 -2 0 0 0 0];

internalField   nonuniform List<scalar> 
2000
(
0.235462
0.241609
0.247575
0.253616
0.258796
0.262458
0.264482
0.265003
0.264076
0.262173
0.241692
0.248105
0.254829
0.261911
0.268212
0.272984
0.27607
0.277569
0.277514
0.276627
0.249384
0.256067
0.263587
0.271739
0.279169
0.28504
0.289172
0.291652
0.292538
0.292624
0.258703
0.265646
0.273983
0.283205
0.291736
0.298664
0.303791
0.307205
0.309001
0.310013
0.269796
0.276981
0.286134
0.296398
0.305974
0.313893
0.319948
0.324239
0.326899
0.32877
0.282793
0.290188
0.300134
0.31138
0.32192
0.330743
0.337645
0.342744
0.346215
0.348883
0.297797
0.305354
0.316047
0.328189
0.339586
0.349205
0.35686
0.362688
0.366913
0.370309
0.314876
0.322537
0.333904
0.346828
0.358952
0.369248
0.377548
0.384021
0.388937
0.392985
0.334063
0.341753
0.3537
0.367264
0.379969
0.390805
0.399636
0.406662
0.412198
0.41681
0.355347
0.362978
0.375387
0.389427
0.402549
0.413783
0.423025
0.430504
0.43658
0.441668
0.217757
0.222277
0.224286
0.22455
0.223082
0.219941
0.215373
0.209667
0.203086
0.19584
0.217857
0.222427
0.224499
0.224879
0.223552
0.220558
0.216135
0.210567
0.204116
0.196982
0.218095
0.222735
0.224954
0.22556
0.22451
0.22181
0.217675
0.212379
0.206188
0.199276
0.218515
0.223255
0.225695
0.22664
0.225999
0.223733
0.220021
0.215124
0.209314
0.202731
0.219189
0.22406
0.226794
0.228185
0.22808
0.226376
0.223214
0.218834
0.213516
0.207361
0.220214
0.225244
0.228345
0.230284
0.230831
0.229808
0.227306
0.223546
0.218818
0.213178
0.22171
0.226924
0.230463
0.233047
0.23435
0.234106
0.232357
0.229302
0.225248
0.220198
0.22382
0.22924
0.233284
0.236603
0.23875
0.239364
0.238432
0.236136
0.23281
0.228398
0.226701
0.232347
0.236964
0.241106
0.24418
0.245718
0.245649
0.244136
0.241505
0.237584
0.230523
0.236413
0.241673
0.246726
0.250814
0.253369
0.254275
0.253674
0.251752
0.247888
0.188096
0.179769
0.171073
0.162119
0.152956
0.143617
0.134133
0.12453
0.114831
0.105052
0.0952064
0.085307
0.0753633
0.0653838
0.0553753
0.0453428
0.0353146
0.0252658
0.0152058
0.00514131
0.189257
0.1809
0.172163
0.163166
0.153957
0.144566
0.135025
0.125363
0.115602
0.10576
0.0958503
0.0858852
0.0758748
0.0658273
0.0557493
0.0456479
0.0355469
0.025432
0.0153044
0.00517383
0.191591
0.183177
0.174355
0.165273
0.155968
0.146471
0.136815
0.127033
0.117148
0.107177
0.0971366
0.0870392
0.0768959
0.066717
0.0565126
0.0462917
0.0360259
0.0257666
0.0155014
0.00523388
0.195099
0.186593
0.177644
0.168431
0.158982
0.149324
0.139497
0.129535
0.119464
0.109303
0.0990687
0.0887737
0.078429
0.0680433
0.0576226
0.047171
0.0366914
0.0262483
0.0157925
0.00532448
0.199789
0.191154
0.182033
0.172642
0.162996
0.15312
0.143061
0.132858
0.122537
0.11212
0.101623
0.0910626
0.0804499
0.0697962
0.0591126
0.0484109
0.0376995
0.0269349
0.0161911
0.00544763
0.205666
0.196861
0.187522
0.177905
0.168009
0.157861
0.147517
0.137016
0.126389
0.115658
0.104842
0.0939561
0.0830144
0.0720263
0.0609991
0.0499367
0.0388369
0.0276996
0.0166507
0.00559594
0.212722
0.203706
0.194101
0.1842
0.173989
0.163502
0.152803
0.141934
0.130929
0.119812
0.108604
0.0973238
0.085984
0.0745969
0.0631736
0.0517251
0.0402645
0.0287934
0.0172039
0.00575992
0.220925
0.211687
0.20178
0.191542
0.180978
0.170127
0.159045
0.147776
0.136355
0.124809
0.113162
0.101432
0.0896349
0.0777835
0.0658883
0.0539584
0.0420022
0.0300344
0.0180803
0.00603312
0.229983
0.220693
0.210453
0.199716
0.188637
0.17728
0.165694
0.153921
0.141996
0.129947
0.117798
0.105568
0.0932721
0.0809238
0.0685338
0.0561117
0.0436657
0.0312035
0.0187293
0.00624869
0.239223
0.230784
0.220831
0.20991
0.198477
0.186685
0.174607
0.162302
0.149816
0.137181
0.124422
0.111562
0.098617
0.0856023
0.0725306
0.0594123
0.0462562
0.0330692
0.0198561
0.00662794
0.250484
0.239718
0.228606
0.216787
0.204586
0.192145
0.1795
0.166681
0.15372
0.140646
0.127477
0.114233
0.100927
0.0875693
0.0741711
0.0607398
0.0472821
0.0338032
0.0203059
0.00679347
0.255232
0.243002
0.231021
0.218721
0.206174
0.193468
0.180617
0.167633
0.154537
0.141349
0.128083
0.114753
0.10137
0.0879424
0.0744788
0.0609852
0.0474669
0.0339277
0.0203702
0.00679904
0.259283
0.246391
0.233825
0.221069
0.208154
0.195142
0.182039
0.168847
0.155575
0.142237
0.128841
0.115398
0.101913
0.0883952
0.0748484
0.0612776
0.0476865
0.0340781
0.0204548
0.00681805
0.263135
0.249784
0.236711
0.223527
0.210262
0.196956
0.183605
0.1702
0.156746
0.143248
0.129712
0.116144
0.102547
0.0889261
0.0752845
0.0616252
0.0479506
0.0342623
0.0205622
0.00684711
0.266703
0.252934
0.239418
0.225857
0.212278
0.198705
0.185122
0.171518
0.157889
0.144239
0.130567
0.116877
0.10317
0.0894484
0.0757136
0.0619673
0.0482102
0.0344431
0.0206671
0.00687516
0.269955
0.255833
0.241943
0.228058
0.214203
0.200386
0.186589
0.172796
0.159002
0.145205
0.131402
0.117594
0.10378
0.0899598
0.0761339
0.0623021
0.0484643
0.03462
0.0207699
0.00690325
0.272905
0.258492
0.244287
0.230125
0.216026
0.20199
0.187997
0.17403
0.160081
0.146144
0.132216
0.118294
0.104376
0.0904598
0.0765449
0.0626298
0.0487132
0.0347935
0.0208709
0.00693164
0.27557
0.260913
0.246443
0.232044
0.217732
0.203502
0.189332
0.175205
0.161111
0.147044
0.132998
0.118968
0.10495
0.0909426
0.0769422
0.0629468
0.048954
0.0349615
0.020969
0.0069598
0.277962
0.263102
0.248409
0.233809
0.219312
0.204911
0.190583
0.176311
0.162085
0.147897
0.133741
0.119609
0.105498
0.0914034
0.0773217
0.0632497
0.0491844
0.0351223
0.021063
0.00698731
0.280095
0.265066
0.250187
0.235415
0.220761
0.20621
0.191741
0.17734
0.162995
0.148697
0.134438
0.120212
0.106014
0.091838
0.0776801
0.063536
0.0494022
0.0352746
0.0211522
0.00701383
0.281983
0.266813
0.251779
0.236865
0.222075
0.207394
0.192802
0.178286
0.163833
0.149436
0.135085
0.120773
0.106494
0.092243
0.0780142
0.0638032
0.0496056
0.0354169
0.0212357
0.00703904
0.283641
0.268354
0.253191
0.238157
0.223252
0.20846
0.193761
0.179144
0.164597
0.15011
0.135676
0.121287
0.106935
0.0926151
0.0783216
0.0640492
0.0497931
0.0355481
0.0213128
0.00706263
0.285082
0.269697
0.254429
0.239295
0.224294
0.209406
0.194616
0.179911
0.165281
0.150717
0.136209
0.12175
0.107333
0.0929516
0.0785998
0.0642721
0.049963
0.0356672
0.0213828
0.00708431
0.286317
0.270852
0.255497
0.240282
0.225201
0.210233
0.195365
0.180585
0.165884
0.151252
0.13668
0.12216
0.107686
0.0932504
0.0788471
0.0644703
0.0501142
0.0357732
0.0214453
0.00710382
0.287356
0.271827
0.256402
0.241122
0.225974
0.21094
0.196007
0.181165
0.166403
0.151714
0.137087
0.122516
0.107992
0.0935096
0.0790618
0.0646424
0.0502457
0.0358655
0.0214997
0.00712096
0.28821
0.272629
0.257149
0.241816
0.226615
0.211528
0.196543
0.181649
0.166838
0.152101
0.137428
0.122814
0.108249
0.0937277
0.0792425
0.0647875
0.0503565
0.0359433
0.0215456
0.00713554
0.288885
0.273264
0.257742
0.242368
0.227127
0.211998
0.196971
0.182036
0.167186
0.152411
0.137703
0.123054
0.108456
0.0939035
0.0793883
0.0649046
0.050446
0.0360062
0.0215828
0.0071474
0.289389
0.273738
0.258184
0.242781
0.227509
0.212349
0.197291
0.182327
0.167448
0.152645
0.13791
0.123235
0.108613
0.0940361
0.0794984
0.064993
0.0505136
0.0360537
0.0216109
0.00715643
0.289726
0.274054
0.258479
0.243055
0.227763
0.212583
0.197505
0.182521
0.167623
0.152801
0.138048
0.123356
0.108717
0.0941249
0.0795721
0.0650522
0.0505589
0.0360856
0.0216297
0.00716276
0.289912
0.27422
0.25863
0.243194
0.227891
0.212701
0.197612
0.182618
0.16771
0.152879
0.138117
0.123416
0.10877
0.0941693
0.079609
0.0650819
0.0505816
0.0361016
0.0216388
0.00716741
0.445865
0.421157
0.397384
0.374664
0.353094
0.332736
0.313637
0.295758
0.279167
0.263203
0.449429
0.425364
0.4021
0.379754
0.35841
0.338125
0.318965
0.300889
0.284218
0.268033
0.45258
0.429096
0.406325
0.384371
0.363317
0.343222
0.324165
0.306077
0.289331
0.272829
0.455253
0.432263
0.409906
0.388283
0.367479
0.347546
0.328569
0.310466
0.293622
0.277055
0.457551
0.435001
0.413021
0.391708
0.371143
0.351377
0.332495
0.314424
0.297527
0.280958
0.45954
0.437386
0.41575
0.394725
0.374388
0.35479
0.336013
0.317996
0.301055
0.284489
0.461265
0.439468
0.418146
0.397386
0.377264
0.357828
0.339154
0.321197
0.304224
0.287671
0.462765
0.441291
0.420256
0.399741
0.379818
0.360536
0.341964
0.324069
0.307074
0.29053
0.46407
0.44289
0.422118
0.40183
0.382093
0.362955
0.344478
0.326642
0.30963
0.293088
0.465205
0.444294
0.423763
0.403684
0.384119
0.365115
0.346726
0.328945
0.311916
0.295367
0.466191
0.445526
0.425216
0.40533
0.385924
0.367043
0.348735
0.331
0.313953
0.297386
0.467043
0.446604
0.426499
0.40679
0.387531
0.368762
0.350527
0.332828
0.31576
0.299162
0.467777
0.447545
0.427628
0.408082
0.388957
0.37029
0.352118
0.334448
0.317353
0.300712
0.468402
0.448361
0.428617
0.409221
0.390219
0.371643
0.353525
0.335874
0.318745
0.30205
0.468928
0.449063
0.429478
0.41022
0.391329
0.372833
0.35476
0.337118
0.319949
0.303188
0.469363
0.449658
0.430219
0.411088
0.392296
0.373871
0.355834
0.338192
0.320975
0.304135
0.469711
0.450154
0.430849
0.411832
0.393131
0.374767
0.356756
0.339104
0.321831
0.304901
0.469977
0.450554
0.431371
0.412457
0.393836
0.375523
0.357529
0.339859
0.322523
0.305492
0.470168
0.450867
0.431794
0.412971
0.394418
0.376145
0.358159
0.340461
0.323054
0.305912
0.470275
0.451103
0.432145
0.413419
0.394935
0.376701
0.358716
0.340975
0.323479
0.3062
0.70159
0.697794
0.691997
0.685686
0.679001
0.671725
0.663708
0.655173
0.64771
0.646422
0.679297
0.674435
0.667598
0.660644
0.653319
0.645197
0.636122
0.626388
0.617716
0.615385
0.655141
0.649557
0.642221
0.63478
0.626806
0.617834
0.607728
0.596852
0.58704
0.583721
0.629314
0.623438
0.615929
0.608146
0.599618
0.589891
0.578854
0.566952
0.556104
0.551889
0.602664
0.596631
0.589056
0.581019
0.572033
0.561667
0.549835
0.537062
0.525309
0.520321
0.57556
0.569445
0.56189
0.553689
0.544352
0.533473
0.520998
0.507543
0.495033
0.489412
0.548246
0.542133
0.534692
0.526427
0.516854
0.505601
0.492652
0.478707
0.46566
0.459483
0.520976
0.514955
0.507717
0.499493
0.489806
0.478321
0.465055
0.450663
0.437672
0.430914
0.493998
0.488151
0.48121
0.473135
0.463465
0.451893
0.438465
0.424013
0.411099
0.403911
0.467505
0.461948
0.455408
0.447581
0.438055
0.426572
0.413205
0.398872
0.386138
0.378667
0.839079
0.834618
0.830852
0.827867
0.825719
0.824455
0.824071
0.824476
0.826188
0.83237
0.836558
0.831971
0.828141
0.825074
0.82281
0.821397
0.820833
0.821026
0.822488
0.828537
0.831519
0.826692
0.822738
0.819509
0.817014
0.815305
0.814377
0.814145
0.815166
0.820878
0.823977
0.818816
0.814688
0.811221
0.808388
0.806248
0.804786
0.803932
0.804317
0.80952
0.813961
0.808397
0.804055
0.800281
0.797014
0.794319
0.79217
0.790516
0.790084
0.79463
0.801505
0.795499
0.790918
0.786781
0.782999
0.779643
0.776675
0.774066
0.77266
0.776419
0.786686
0.780217
0.775387
0.770844
0.76648
0.762378
0.758484
0.754796
0.752288
0.755153
0.769481
0.762595
0.757555
0.752593
0.747612
0.742711
0.737816
0.732959
0.729258
0.731143
0.750112
0.742843
0.737636
0.732225
0.726597
0.720867
0.714928
0.708849
0.703899
0.704748
0.727585
0.720973
0.715735
0.709879
0.703647
0.697109
0.690117
0.682799
0.676583
0.676363
0.995396
0.986281
0.977245
0.968244
0.959284
0.950386
0.941567
0.93284
0.924211
0.915721
0.907394
0.899248
0.891305
0.883593
0.87614
0.868981
0.862151
0.85569
0.849638
0.844049
0.995356
0.986162
0.977042
0.967955
0.958909
0.949924
0.941017
0.932202
0.92347
0.914882
0.906455
0.898202
0.890145
0.882311
0.874727
0.867424
0.860436
0.8538
0.847548
0.841735
0.99528
0.985923
0.976634
0.967378
0.958162
0.949004
0.939918
0.930907
0.921997
0.913218
0.904586
0.896117
0.887832
0.879754
0.871907
0.864317
0.857013
0.850025
0.843373
0.837103
0.995165
0.985562
0.976018
0.966503
0.957022
0.947591
0.938225
0.928924
0.919759
0.910706
0.901776
0.892991
0.88437
0.87593
0.867693
0.859677
0.851901
0.844387
0.837136
0.830161
0.995013
0.985089
0.975218
0.965378
0.955576
0.945827
0.936132
0.926435
0.91688
0.907436
0.898101
0.888889
0.879817
0.870897
0.862139
0.853553
0.845149
0.836931
0.828879
0.820931
0.994817
0.984482
0.974183
0.963905
0.953653
0.943435
0.933219
0.923177
0.913204
0.903293
0.893466
0.883738
0.874115
0.864603
0.855205
0.845919
0.836737
0.827649
0.818613
0.809423
0.994593
0.983795
0.973029
0.962289
0.951575
0.94085
0.930175
0.919587
0.909047
0.89856
0.88814
0.87779
0.867508
0.85729
0.847126
0.836998
0.826877
0.816726
0.806494
0.795741
0.994305
0.982912
0.971536
0.96018
0.948797
0.937464
0.926247
0.91506
0.903893
0.89276
0.881662
0.870596
0.859552
0.848516
0.837465
0.826365
0.815169
0.803815
0.792266
0.779766
0.994056
0.982148
0.970215
0.958203
0.946268
0.934405
0.922545
0.910687
0.898842
0.887008
0.875178
0.863341
0.851478
0.83956
0.827548
0.815382
0.802974
0.7902
0.777004
0.762164
0.993583
0.980729
0.9679
0.955178
0.942467
0.929756
0.91705
0.904346
0.891637
0.878914
0.866161
0.853355
0.840464
0.827441
0.814224
0.800729
0.786848
0.772448
0.757473
0.740802
0.993417
0.980249
0.967073
0.953887
0.940686
0.927472
0.914239
0.900976
0.887669
0.8743
0.860843
0.847264
0.833518
0.819544
0.805262
0.790562
0.775297
0.759241
0.742067
0.722757
0.993317
0.97995
0.966574
0.953186
0.93978
0.926347
0.912877
0.899358
0.885773
0.872101
0.858315
0.844379
0.830246
0.815856
0.801132
0.785973
0.77025
0.753793
0.736412
0.717841
0.993227
0.979668
0.966095
0.952506
0.938892
0.92524
0.91154
0.897776
0.883931
0.869981
0.855898
0.841647
0.827181
0.812446
0.797372
0.781873
0.765845
0.749169
0.731706
0.713353
0.993134
0.979383
0.965609
0.951814
0.937986
0.924113
0.91018
0.896171
0.882067
0.867844
0.853474
0.838922
0.824146
0.809093
0.793705
0.777908
0.761621
0.744757
0.727204
0.708953
0.993043
0.979103
0.965136
0.951142
0.937111
0.923027
0.908875
0.894638
0.880295
0.865824
0.851197
0.83638
0.821335
0.806016
0.790371
0.774341
0.757861
0.740868
0.723279
0.705123
0.992956
0.978835
0.964682
0.950501
0.936277
0.921996
0.90764
0.893193
0.878635
0.863942
0.849088
0.834042
0.81877
0.803231
0.787382
0.771174
0.754556
0.737484
0.719891
0.701817
0.992873
0.978581
0.964252
0.949893
0.935489
0.921024
0.906481
0.891842
0.877088
0.862196
0.847143
0.831899
0.816435
0.800715
0.784701
0.768356
0.75164
0.734518
0.716938
0.698942
0.992794
0.97834
0.963847
0.949322
0.934751
0.920116
0.905401
0.890587
0.875658
0.86059
0.845362
0.829949
0.814322
0.798451
0.782307
0.765857
0.74907
0.73192
0.714367
0.69645
0.99272
0.978117
0.96347
0.948792
0.934067
0.919276
0.904404
0.889434
0.874348
0.859126
0.843746
0.828187
0.812423
0.79643
0.780181
0.763651
0.746815
0.729654
0.712137
0.694298
0.992652
0.97791
0.963124
0.948304
0.933438
0.918507
0.903495
0.888384
0.873159
0.857801
0.84229
0.826607
0.810729
0.794635
0.778304
0.761714
0.744846
0.727685
0.710208
0.692447
0.99259
0.977721
0.962808
0.947861
0.932868
0.91781
0.902672
0.887438
0.872091
0.856615
0.840991
0.825202
0.809229
0.793053
0.776657
0.760022
0.743134
0.725983
0.708549
0.690862
0.992534
0.977551
0.962523
0.947463
0.932356
0.917186
0.901937
0.886593
0.871141
0.855563
0.839843
0.823966
0.807914
0.791671
0.775224
0.758556
0.741658
0.72452
0.70713
0.689511
0.992484
0.9774
0.962271
0.947109
0.931903
0.916634
0.901288
0.88585
0.870306
0.854641
0.83884
0.822889
0.806772
0.790476
0.773989
0.757298
0.740395
0.723274
0.705926
0.68837
0.99244
0.977268
0.962051
0.946802
0.931509
0.916155
0.900725
0.885206
0.869585
0.853846
0.837977
0.821965
0.805795
0.789456
0.772938
0.756231
0.739328
0.722225
0.704916
0.687417
0.992402
0.977156
0.961862
0.946539
0.931172
0.915746
0.900246
0.88466
0.868973
0.853174
0.837249
0.821186
0.804974
0.788602
0.77206
0.755342
0.738441
0.721355
0.704082
0.686632
0.992371
0.977062
0.961706
0.946321
0.930894
0.915408
0.89985
0.884208
0.868468
0.85262
0.83665
0.820547
0.804302
0.787903
0.771344
0.754619
0.737722
0.720652
0.703409
0.686
0.992346
0.976987
0.961582
0.946147
0.930672
0.915139
0.899535
0.883849
0.868068
0.852181
0.836176
0.820043
0.803771
0.787354
0.770782
0.754052
0.737159
0.720103
0.702885
0.68551
0.992327
0.976931
0.961488
0.946017
0.930506
0.914938
0.8993
0.883581
0.86777
0.851854
0.835824
0.819668
0.803378
0.786947
0.770366
0.753633
0.736744
0.719699
0.702501
0.685152
0.992315
0.976894
0.961427
0.945931
0.930395
0.914804
0.899144
0.883404
0.867572
0.851638
0.835591
0.81942
0.803119
0.786678
0.770092
0.753357
0.736471
0.719434
0.702249
0.684918
0.992307
0.976875
0.961396
0.945888
0.93034
0.914737
0.899066
0.883315
0.867474
0.85153
0.835475
0.819297
0.802989
0.786544
0.769956
0.753221
0.736336
0.719303
0.702125
0.684804
0.701837
0.6789
0.655158
0.630018
0.603998
0.577514
0.550785
0.524037
0.497505
0.471464
0.698371
0.674499
0.65089
0.626724
0.601747
0.576323
0.550663
0.524943
0.499359
0.474077
0.694012
0.670549
0.647556
0.6243
0.60021
0.575634
0.550821
0.525929
0.501139
0.476627
0.689925
0.667139
0.644746
0.622207
0.598864
0.57502
0.550934
0.526751
0.502631
0.478738
0.686315
0.664172
0.642337
0.620384
0.597673
0.574459
0.550997
0.527425
0.503891
0.480546
0.68315
0.661594
0.640263
0.618798
0.596621
0.573949
0.551026
0.527985
0.504961
0.482098
0.680397
0.659358
0.638467
0.617405
0.595679
0.573475
0.55102
0.528443
0.505869
0.483432
0.678017
0.657424
0.636901
0.616174
0.594829
0.573029
0.550983
0.528812
0.506636
0.484579
0.675969
0.65575
0.63553
0.615079
0.594056
0.572605
0.550915
0.529103
0.507281
0.485565
0.674211
0.6543
0.634324
0.614098
0.593347
0.572198
0.55082
0.529325
0.507819
0.48641
0.672706
0.653043
0.633259
0.613214
0.592692
0.571802
0.550698
0.529485
0.508262
0.487131
0.671421
0.651954
0.632315
0.612414
0.592082
0.571416
0.550552
0.52959
0.508622
0.487742
0.67033
0.651008
0.631476
0.611685
0.59151
0.571036
0.550383
0.529644
0.508905
0.488255
0.669409
0.650189
0.630728
0.611018
0.590971
0.570661
0.550192
0.529652
0.50912
0.488678
0.668641
0.649479
0.630059
0.610405
0.59046
0.570288
0.54998
0.529617
0.509271
0.489018
0.668009
0.648868
0.62946
0.609839
0.589974
0.569917
0.549748
0.529541
0.509364
0.489283
0.667501
0.648344
0.628924
0.609316
0.589508
0.569544
0.549495
0.529427
0.5094
0.489476
0.66711
0.647904
0.628449
0.608835
0.589064
0.569173
0.549224
0.529276
0.509384
0.489601
0.666824
0.647536
0.628025
0.60839
0.58864
0.568806
0.54894
0.529096
0.509322
0.489666
0.666638
0.647219
0.627603
0.607906
0.588148
0.568351
0.548558
0.528816
0.509163
0.489637
)
;

boundaryField
{
    bottom
    {
        type            symmetryPlane;
    }
    right
    {
        type            fixedValue;
        value           uniform 0;
    }
    top
    {
        type            symmetryPlane;
    }
    left
    {
        type            fixedValue;
        value           uniform 1;
    }
    cylinder
    {
        type            zeroGradient;
    }
    defaultFaces
    {
        type            empty;
    }
}


// ************************************************************************* //
