/*--------------------------------*- C++ -*----------------------------------*\
| =========                 |                                                 |
| \\      /  F ield         | OpenFOAM: The Open Source CFD Toolbox           |
|  \\    /   O peration     | Version:  4.1                                   |
|   \\  /    A nd           | Web:      www.OpenFOAM.org                      |
|    \\/     M anipulation  |                                                 |
\*---------------------------------------------------------------------------*/
FoamFile
{
    version     2.0;
    format      ascii;
    class       volVectorField;
    location    "1.5";
    object      U;
}
// * * * * * * * * * * * * * * * * * * * * * * * * * * * * * * * * * * * * * //

dimensions      [0 1 -1 0 0 0 0];

internalField   nonuniform List<vector> 
2000
(
(0.0704704 -0.0595774 -2.80979e-20)
(0.177346 -0.135252 0)
(0.256607 -0.174763 -5.12792e-20)
(0.309406 -0.191015 -2.50603e-20)
(0.341825 -0.192225 4.62396e-20)
(0.360085 -0.184559 6.63816e-20)
(0.369245 -0.172458 -2.01998e-20)
(0.373012 -0.158816 0)
(0.373558 -0.14594 1.90969e-20)
(0.372569 -0.135815 0)
(0.0828818 -0.0600385 1.36796e-20)
(0.20415 -0.133981 -1.42307e-20)
(0.290008 -0.171139 5.14578e-20)
(0.3445 -0.18548 7.44929e-20)
(0.375803 -0.185467 9.06346e-22)
(0.391581 -0.177216 -2.19886e-20)
(0.397793 -0.164962 2.25779e-20)
(0.398642 -0.151403 2.11738e-20)
(0.39651 -0.13881 -1.90971e-20)
(0.393144 -0.128738 -3.72929e-20)
(0.0957752 -0.0589438 -1.48791e-20)
(0.2312 -0.129115 1.39375e-20)
(0.322985 -0.162884 -2.64908e-20)
(0.378524 -0.174954 1.01305e-21)
(0.408273 -0.173782 -2.43524e-20)
(0.421366 -0.16526 -2.3308e-20)
(0.424622 -0.153329 -2.22447e-20)
(0.422669 -0.140448 -2.11739e-20)
(0.418089 -0.128672 -2.12112e-20)
(0.412629 -0.118998 2.02111e-20)
(0.108896 -0.0561802 -2.01323e-22)
(0.257879 -0.120582 1.44586e-20)
(0.354741 -0.150076 0)
(0.410634 -0.159661 -2.61746e-20)
(0.438418 -0.157495 2.55742e-20)
(0.448678 -0.149045 0)
(0.449016 -0.137837 0)
(0.444397 -0.126016 0)
(0.43756 -0.115366 2.12114e-20)
(0.430306 -0.106441 -4.0614e-20)
(0.121953 -0.0516723 -3.23657e-20)
(0.283538 -0.108411 -5.65404e-22)
(0.384479 -0.132923 -1.49791e-20)
(0.440026 -0.139968 -1.3117e-20)
(0.465498 -0.137078 -1.39674e-20)
(0.472871 -0.129098 -1.34631e-20)
(0.470426 -0.119032 0)
(0.46338 -0.108652 -1.24055e-20)
(0.454568 -0.099426 5.81073e-20)
(0.445733 -0.0915211 -7.67377e-20)
(0.134626 -0.0453916 4.97899e-20)
(0.307512 -0.092738 -1.57206e-22)
(0.411431 -0.111761 3.05997e-20)
(0.465962 -0.116356 -2.90005e-20)
(0.488859 -0.113092 4.3e-20)
(0.493383 -0.106005 -1.37944e-20)
(0.488372 -0.0974816 0)
(0.479199 -0.0888902 1.24056e-20)
(0.468733 -0.0813603 -1.18679e-20)
(0.45859 -0.0747617 -4.77593e-20)
(0.146573 -0.0373647 0)
(0.329145 -0.073812 0)
(0.434886 -0.0870484 1.64563e-20)
(0.487793 -0.0894159 -1.53212e-20)
(0.50796 -0.0861862 1.53199e-20)
(0.509773 -0.0804112 -1.43833e-20)
(0.502488 -0.0737977 -2.83163e-20)
(0.491543 -0.0672886 2.67649e-20)
(0.47977 -0.0616673 2.59957e-20)
(0.468604 -0.0566069 -1.26564e-20)
(0.157443 -0.02768 -9.55345e-21)
(0.347814 -0.0519967 0)
(0.45421 -0.0593584 8.60441e-21)
(0.504982 -0.0598289 -3.29748e-20)
(0.522377 -0.0570678 2.39159e-20)
(0.521715 -0.0530024 0)
(0.51252 -0.0486134 0)
(0.500197 -0.0444176 0)
(0.487485 -0.0408566 2.75722e-20)
(0.475605 -0.0375171 -2.62057e-20)
(0.166891 -0.0164916 4.57975e-21)
(0.362954 -0.0277652 -2.00176e-22)
(0.468878 -0.0293618 8.78429e-21)
(0.51712 -0.0283451 -4.50006e-21)
(0.53182 -0.0264877 -3.99894e-21)
(0.529009 -0.0244826 -8.0478e-21)
(0.518321 -0.0225666 0)
(0.505045 -0.0208441 3.8929e-21)
(0.49177 -0.0194331 1.83578e-20)
(0.479508 -0.0179405 -1.38912e-20)
(0.17459 -0.0040195 0)
(0.374087 -0.00168898 4.85918e-21)
(0.478487 0.00218943 0)
(0.523937 0.00423526 2.1456e-21)
(0.536132 0.00478168 2.01448e-21)
(0.531572 0.00444088 4.26181e-21)
(0.519849 0.00371117 0)
(0.506057 0.00286771 -3.89296e-21)
(0.492598 0.00208465 -3.74148e-21)
(0.480305 0.00168562 -3.71803e-21)
(0.0031194 -0.00381355 0)
(0.0176739 -0.00950568 3.08944e-21)
(0.0431428 -0.0130493 0)
(0.0714347 -0.0149254 4.02589e-21)
(0.0995542 -0.0155409 1.24503e-21)
(0.125937 -0.0152833 -2.28264e-21)
(0.149724 -0.0144863 2.14963e-21)
(0.17062 -0.0134017 -1.96043e-21)
(0.188687 -0.0121949 -3.63055e-23)
(0.204162 -0.0109276 -1.6758e-21)
(0.00435908 -0.0114029 9.65827e-21)
(0.0208753 -0.0283483 -6.1015e-21)
(0.0476754 -0.0388819 5.74172e-21)
(0.0767086 -0.0444322 -2.67264e-21)
(0.105119 -0.0462295 -1.24069e-20)
(0.131473 -0.0454365 4.6377e-21)
(0.155025 -0.0430466 0)
(0.175573 -0.0398082 1.9539e-21)
(0.19326 -0.0362104 1.79473e-21)
(0.208352 -0.0324389 0)
(0.00685614 -0.0188622 -6.41793e-21)
(0.0272612 -0.0466997 0)
(0.0566718 -0.0639155 -1.72521e-20)
(0.0871605 -0.0729085 2.14223e-20)
(0.116126 -0.075747 -5.02833e-21)
(0.142403 -0.0743606 0)
(0.165482 -0.0703822 0)
(0.185338 -0.0650356 0)
(0.202272 -0.0591119 -1.42987e-20)
(0.216612 -0.0529199 1.35905e-20)
(0.0106126 -0.0260876 0)
(0.0367821 -0.0642405 1.23811e-20)
(0.0700063 -0.0876198 -2.30265e-20)
(0.102591 -0.0996811 1.07594e-20)
(0.13232 -0.103341 -1.00044e-20)
(0.158444 -0.101276 2.79288e-20)
(0.180803 -0.0957242 -3.38386e-22)
(0.199635 -0.0883487 -1.61877e-20)
(0.215466 -0.0802054 -1.45306e-20)
(0.22872 -0.0717208 2.06846e-20)
(0.0156283 -0.0329754 -1.30184e-20)
(0.049353 -0.0806343 2.46145e-20)
(0.0874787 -0.109472 4.54728e-24)
(0.122689 -0.124102 -8.34426e-23)
(0.153314 -0.128304 -1.00107e-20)
(0.179163 -0.125464 2.85093e-20)
(0.200544 -0.11838 0)
(0.218035 -0.109101 8.22748e-21)
(0.232441 -0.0988888 -7.62201e-21)
(0.244318 -0.0882738 2.74698e-20)
(0.0218976 -0.0394091 1.7601e-22)
(0.064846 -0.0955348 -2.46753e-20)
(0.108803 -0.128957 -1.16287e-20)
(0.147026 -0.145559 -1.11369e-20)
(0.178574 -0.149984 -1.02081e-20)
(0.203971 -0.146289 -9.52689e-21)
(0.224101 -0.137761 0)
(0.239956 -0.126762 -8.22749e-21)
(0.252657 -0.114686 -2.28457e-20)
(0.26292 -0.10212 7.39057e-21)
(0.0294018 -0.0452561 1.51193e-22)
(0.0830782 -0.108587 -1.23711e-20)
(0.133598 -0.14558 0)
(0.175051 -0.163487 2.19345e-20)
(0.207433 -0.167809 -2.0793e-20)
(0.232135 -0.163213 0)
(0.250729 -0.153397 0)
(0.264677 -0.140951 0)
(0.275443 -0.127282 1.61511e-20)
(0.283911 -0.112952 2.85175e-20)
(0.0380997 -0.050366 1.33371e-20)
(0.103801 -0.119431 -1.24931e-20)
(0.161385 -0.158871 -2.40294e-20)
(0.206098 -0.177384 -3.83394e-22)
(0.239099 -0.181296 -2.14847e-20)
(0.262808 -0.175813 -2.02608e-20)
(0.279578 -0.164961 -1.90501e-20)
(0.291399 -0.151459 -1.78645e-20)
(0.300072 -0.136588 -1.61511e-20)
(0.306602 -0.120705 1.50453e-20)
(0.0479203 -0.0545729 4.04376e-20)
(0.126691 -0.127709 1.32254e-20)
(0.19159 -0.1684 4.89356e-20)
(0.239394 -0.186819 2.31934e-20)
(0.272676 -0.190053 -5.36726e-22)
(0.295026 -0.183762 1.99384e-20)
(0.309683 -0.172222 -1.99604e-20)
(0.319238 -0.158205 1.78646e-20)
(0.325835 -0.142781 -1.73924e-20)
(0.33048 -0.125921 3.13585e-20)
(0.0587575 -0.0577015 -2.69243e-20)
(0.151357 -0.133083 0)
(0.22356 -0.173794 -2.44581e-20)
(0.274104 -0.191442 4.59537e-22)
(0.307203 -0.193764 -1.11095e-22)
(0.327733 -0.186762 -2.15599e-20)
(0.339864 -0.174869 5.96282e-20)
(0.346848 -0.160895 0)
(0.351238 -0.145991 1.73925e-20)
(0.354563 -0.130193 0)
(0.21717 -0.00952198 0)
(0.228883 -0.00828582 1.44661e-21)
(0.239197 -0.00720688 -2.83415e-21)
(0.248224 -0.00627089 1.21796e-21)
(0.256136 -0.00545874 0)
(0.263081 -0.00475205 -1.16783e-21)
(0.269177 -0.00413649 1.17362e-21)
(0.274524 -0.00360053 0)
(0.279209 -0.00313392 0)
(0.283314 -0.00272717 -1.13031e-22)
(0.286905 -0.00237167 0)
(0.29004 -0.00205964 0)
(0.292769 -0.00178411 0)
(0.29513 -0.00153873 0)
(0.297154 -0.00131707 1.10779e-22)
(0.298857 -0.00111268 -1.11353e-22)
(0.300293 -0.000928111 0)
(0.301514 -0.00076152 2.26036e-23)
(0.302543 -0.000611674 -2.27225e-23)
(0.303516 -0.000491887 0)
(0.22058 -0.0283077 0)
(0.231747 -0.0246488 -3.74654e-22)
(0.241616 -0.0214494 0)
(0.250267 -0.0186714 -5.09963e-21)
(0.257868 -0.0162584 4.96923e-21)
(0.26456 -0.0141565 -3.04975e-22)
(0.270449 -0.0123244 2.19279e-21)
(0.275624 -0.0107283 -4.50843e-21)
(0.280169 -0.00933799 3.68217e-21)
(0.284158 -0.00812543 -2.00496e-21)
(0.287654 -0.00706505 -1.55905e-21)
(0.290711 -0.00613382 2.77425e-21)
(0.293377 -0.00531126 -1.40077e-21)
(0.295689 -0.00457935 -6.73043e-22)
(0.297678 -0.0039219 5.314e-22)
(0.299349 -0.00332477 -1.00952e-22)
(0.300749 -0.00276436 -7.89655e-23)
(0.301939 -0.00226194 -9.03031e-23)
(0.302941 -0.00181529 9.07405e-23)
(0.30389 -0.00145652 -1.17015e-23)
(0.227314 -0.0463068 3.9692e-22)
(0.237406 -0.0403633 3.75301e-22)
(0.246397 -0.0351513 3.64269e-22)
(0.254304 -0.0306217 0)
(0.261292 -0.0266806 5.69811e-21)
(0.267482 -0.0232418 -4.45176e-21)
(0.272959 -0.0202412 0)
(0.277796 -0.0176255 5.37083e-22)
(0.282063 -0.0153458 2.46577e-22)
(0.285824 -0.0133567 -3.02005e-21)
(0.289133 -0.0116166 3.4406e-22)
(0.292037 -0.0100883 3.533e-21)
(0.294576 -0.0087386 1.67191e-22)
(0.296784 -0.00753831 1.43242e-22)
(0.298687 -0.00646178 1.23844e-22)
(0.300313 -0.00548312 -2.58529e-22)
(0.301667 -0.00456178 2.47641e-22)
(0.302781 -0.00373031 2.71442e-22)
(0.303721 -0.00298835 5.737e-23)
(0.304618 -0.00238615 2.64308e-25)
(0.237221 -0.0630116 1.21809e-20)
(0.245735 -0.0550047 -5.77312e-22)
(0.253425 -0.047956 -9.67379e-22)
(0.260233 -0.0418225 -1.15131e-20)
(0.266313 -0.0364717 -9.99895e-22)
(0.271763 -0.031791 -3.0933e-22)
(0.276632 -0.0277 8.43602e-21)
(0.280969 -0.0241294 -5.13462e-21)
(0.284826 -0.021014 -4.20276e-21)
(0.288252 -0.0182928 3.76687e-21)
(0.291285 -0.0159101 -3.48561e-22)
(0.293964 -0.0138154 -3.76848e-21)
(0.296318 -0.0119636 -1.65798e-22)
(0.298376 -0.0103146 -1.37136e-21)
(0.300164 -0.00883292 9.56861e-22)
(0.301713 -0.00748444 7.22458e-22)
(0.302992 -0.00624541 -6.42446e-22)
(0.304018 -0.00509863 0)
(0.304881 -0.00407567 -1.03503e-22)
(0.305702 -0.00324241 -1.15483e-23)
(0.250044 -0.0779714 -2.69655e-20)
(0.256521 -0.0681984 1.15852e-20)
(0.262519 -0.0595545 -1.24105e-20)
(0.267895 -0.0520187 0)
(0.272801 -0.0454204 6.71437e-22)
(0.277291 -0.0396306 9.89708e-21)
(0.281372 -0.0345606 -8.70586e-23)
(0.285063 -0.0301289 -6.88018e-22)
(0.288391 -0.0262564 -8.57489e-21)
(0.291384 -0.0228694 -4.65402e-22)
(0.294063 -0.0199002 0)
(0.296452 -0.0172872 3.79176e-22)
(0.29857 -0.0149756 0)
(0.300436 -0.0129172 2.91533e-22)
(0.302067 -0.01107 0)
(0.303485 -0.00939753 0)
(0.304674 -0.00786968 -1.58069e-22)
(0.305607 -0.00641123 1.83548e-22)
(0.306353 -0.0051043 -1.61778e-22)
(0.307073 -0.00403276 4.6332e-23)
(0.265413 -0.0907933 0)
(0.269447 -0.0796082 8.09498e-22)
(0.273402 -0.0696668 2.43909e-20)
(0.27706 -0.0609716 -2.36344e-20)
(0.280558 -0.0533182 7.13411e-22)
(0.283896 -0.0465754 0)
(0.287032 -0.0406532 9.49345e-21)
(0.289948 -0.0354623 -1.76987e-20)
(0.292643 -0.0309154 9.3235e-21)
(0.295118 -0.0269307 4.90937e-22)
(0.297373 -0.0234322 4.44961e-22)
(0.299412 -0.0203502 3.98697e-22)
(0.301243 -0.0176219 0)
(0.302872 -0.0151924 -1.91194e-21)
(0.304309 -0.0130137 4.32482e-21)
(0.305573 -0.0110453 -1.84869e-21)
(0.306696 -0.0092565 1.64742e-22)
(0.307564 -0.00760309 1.17634e-22)
(0.308183 -0.00601576 -4.63187e-23)
(0.308778 -0.00470793 4.64275e-23)
(0.282855 -0.10116 -2.90969e-20)
(0.284088 -0.0889737 0)
(0.285718 -0.078096 8.29919e-22)
(0.287449 -0.0685314 -1.54354e-21)
(0.289372 -0.0600641 -1.45498e-21)
(0.29142 -0.052576 -6.95045e-22)
(0.293495 -0.0459767 -6.483e-22)
(0.295541 -0.040172 8.47669e-21)
(0.297521 -0.0350707 -1.01223e-20)
(0.299406 -0.0305869 -8.54026e-21)
(0.301176 -0.0266395 7.09267e-21)
(0.302817 -0.023153 -8.02251e-22)
(0.304319 -0.0200592 2.63662e-21)
(0.305677 -0.0172977 -6.74017e-22)
(0.306888 -0.0148158 -2.77002e-21)
(0.307952 -0.0125692 -2.15516e-22)
(0.308877 -0.0105267 2.33786e-22)
(0.309703 -0.00867315 -3.02012e-22)
(0.310296 -0.00691324 -4.44326e-22)
(0.310709 -0.00534547 -2.38863e-23)
(0.30182 -0.10879 0)
(0.299905 -0.0960801 2.80281e-20)
(0.299003 -0.0846825 -2.87388e-20)
(0.298682 -0.0745273 7.89115e-22)
(0.298922 -0.0654442 1.51499e-21)
(0.299586 -0.0573544 6.94441e-22)
(0.30053 -0.0501824 1.31917e-21)
(0.301649 -0.0438451 0)
(0.302866 -0.038259 5.48956e-22)
(0.304123 -0.0333406 5.00184e-22)
(0.305375 -0.0290071 4.7017e-22)
(0.306589 -0.0251795 8.22348e-22)
(0.307739 -0.0217853 0)
(0.308808 -0.0187593 0)
(0.309782 -0.0160437 2.58134e-22)
(0.310653 -0.0135877 1.95851e-21)
(0.311421 -0.0113477 -1.35913e-21)
(0.312087 -0.00929438 1.20883e-22)
(0.312655 -0.00744302 2.36523e-22)
(0.313066 -0.00578065 -7.14313e-23)
(0.321953 -0.113635 -3.26895e-20)
(0.316425 -0.100995 0)
(0.312911 -0.0896679 0)
(0.310588 -0.0794327 2.62326e-20)
(0.309148 -0.0701817 -2.27934e-21)
(0.308394 -0.0618448 -4.72001e-20)
(0.308153 -0.0543619 2.20027e-20)
(0.308284 -0.0476789 0)
(0.308679 -0.0417374 0)
(0.309251 -0.0364694 0)
(0.309934 -0.0318001 -2.20624e-22)
(0.310674 -0.0276538 -6.29433e-22)
(0.311432 -0.0239581 -5.52074e-21)
(0.312174 -0.0206464 5.31906e-21)
(0.312879 -0.0176592 -1.9483e-21)
(0.313529 -0.0149436 1.72151e-21)
(0.314111 -0.0124536 0)
(0.314617 -0.0101532 -5.57086e-23)
(0.315034 -0.00802508 -6.99898e-23)
(0.315409 -0.00615863 0)
(0.343401 -0.116234 5.12834e-22)
(0.333358 -0.10325 3.13382e-20)
(0.32685 -0.0913717 -3.10115e-20)
(0.322473 -0.0806728 0)
(0.319405 -0.0710881 -2.59069e-20)
(0.317306 -0.0624782 4.96981e-20)
(0.31595 -0.0547501 -2.3812e-20)
(0.315153 -0.0478446 0)
(0.314773 -0.041708 -9.27043e-21)
(0.314699 -0.0362791 1.75463e-20)
(0.314844 -0.0314877 -8.5252e-21)
(0.315139 -0.0272593 2.12837e-22)
(0.315527 -0.0235203 0)
(0.315966 -0.0202014 5.02568e-21)
(0.316422 -0.0172396 -6.8302e-21)
(0.316873 -0.014578 1.9918e-21)
(0.317299 -0.0121663 1.18644e-21)
(0.317689 -0.00996138 -8.42777e-22)
(0.318028 -0.0079363 -3.88571e-22)
(0.318352 -0.00613607 0)
(0.36654 -0.113835 0)
(0.352108 -0.106496 0)
(0.341783 -0.0975939 0)
(0.334718 -0.0884367 0)
(0.329678 -0.0794832 0)
(0.326054 -0.0709766 0)
(0.323499 -0.063047 0)
(0.321743 -0.0557563 0)
(0.320576 -0.0491232 0)
(0.319843 -0.0431317 0)
(0.319428 -0.0377403 0)
(0.319245 -0.0328921 0)
(0.319225 -0.028525 0)
(0.319315 -0.0245772 0)
(0.319476 -0.0209906 0)
(0.319677 -0.0177117 0)
(0.319894 -0.0146925 0)
(0.320112 -0.0118917 0)
(0.320317 -0.00928235 0)
(0.320554 -0.00690341 0)
(0.373222 -0.0976642 0)
(0.361635 -0.091811 0)
(0.351706 -0.0852312 0)
(0.344068 -0.0784132 0)
(0.338203 -0.0715141 0)
(0.333708 -0.064684 0)
(0.330326 -0.0580844 0)
(0.327825 -0.0518444 0)
(0.326003 -0.0460435 0)
(0.324697 -0.0407138 0)
(0.323784 -0.0358506 0)
(0.323167 -0.0314257 0)
(0.322769 -0.0273992 0)
(0.322533 -0.0237268 0)
(0.322413 -0.0203639 0)
(0.322375 -0.0172682 0)
(0.322392 -0.0144002 0)
(0.322444 -0.0117251 0)
(0.322514 -0.00922145 0)
(0.32261 -0.0069307 0)
(0.377412 -0.085988 0)
(0.367354 -0.0816648 0)
(0.358375 -0.0767778 0)
(0.351061 -0.0715033 0)
(0.345111 -0.0659707 0)
(0.340286 -0.0603108 0)
(0.336448 -0.054679 0)
(0.33345 -0.0492199 0)
(0.331136 -0.0440392 0)
(0.329367 -0.0391963 0)
(0.32803 -0.0347124 0)
(0.32703 -0.0305814 0)
(0.326291 -0.0267817 0)
(0.325755 -0.0232835 0)
(0.325373 -0.0200542 0)
(0.325109 -0.0170606 0)
(0.324934 -0.0142705 0)
(0.324825 -0.0116553 0)
(0.324765 -0.00919753 0)
(0.324729 -0.00693351 0)
(0.380335 -0.0761373 0)
(0.371339 -0.0730564 0)
(0.363247 -0.0693664 0)
(0.356436 -0.0652156 0)
(0.350667 -0.0607328 0)
(0.345799 -0.0560306 0)
(0.341768 -0.0512417 0)
(0.338486 -0.0465002 0)
(0.335846 -0.0419138 0)
(0.333739 -0.0375528 0)
(0.332072 -0.0334536 0)
(0.33076 -0.0296263 0)
(0.329734 -0.0260644 0)
(0.328938 -0.0227514 0)
(0.328324 -0.0196652 0)
(0.327858 -0.0167818 0)
(0.327508 -0.0140762 0)
(0.327251 -0.0115252 0)
(0.327073 -0.00911509 0)
(0.326922 -0.00687883 0)
(0.382496 -0.0673532 0)
(0.374381 -0.0651722 0)
(0.367025 -0.0623773 0)
(0.360686 -0.0591064 0)
(0.355169 -0.0554723 0)
(0.350387 -0.051572 0)
(0.346313 -0.0475196 0)
(0.342894 -0.0434333 0)
(0.340058 -0.0394135 0)
(0.337722 -0.0355313 0)
(0.335813 -0.0318299 0)
(0.33426 -0.0283296 0)
(0.333004 -0.0250345 0)
(0.331993 -0.0219385 0)
(0.331184 -0.0190287 0)
(0.330542 -0.0162888 0)
(0.33004 -0.0137004 0)
(0.329654 -0.0112455 0)
(0.329371 -0.00891419 0)
(0.329115 -0.00673759 0)
(0.384042 -0.059464 0)
(0.376697 -0.0579829 0)
(0.369982 -0.0559008 0)
(0.364081 -0.0533412 0)
(0.358842 -0.0504033 0)
(0.35421 -0.0471736 0)
(0.350179 -0.0437526 0)
(0.346718 -0.0402446 0)
(0.343777 -0.0367404 0)
(0.341297 -0.0333078 0)
(0.339219 -0.0299916 0)
(0.337488 -0.0268177 0)
(0.336053 -0.0237974 0)
(0.33487 -0.020932 0)
(0.3339 -0.0182159 0)
(0.333113 -0.0156389 0)
(0.332481 -0.0131883 0)
(0.331983 -0.0108511 0)
(0.331608 -0.00862072 0)
(0.331262 -0.00652578 0)
(0.385068 -0.0523961 0)
(0.378414 -0.051448 0)
(0.372281 -0.0499262 0)
(0.366795 -0.0479398 0)
(0.361843 -0.0455752 0)
(0.357396 -0.0429087 0)
(0.35346 -0.0400292 0)
(0.350019 -0.0370284 0)
(0.347038 -0.0339873 0)
(0.344476 -0.0309686 0)
(0.342288 -0.0280164 0)
(0.34043 -0.025159 0)
(0.338861 -0.0224121 0)
(0.337544 -0.0197821 0)
(0.336446 -0.0172686 0)
(0.335539 -0.0148667 0)
(0.3348 -0.0125683 0)
(0.334207 -0.0103642 0)
(0.333755 -0.008251 0)
(0.333329 -0.00625454 0)
(0.385677 -0.0460545 0)
(0.379649 -0.0455 0)
(0.374047 -0.044412 0)
(0.368956 -0.042885 0)
(0.364291 -0.0409922 0)
(0.360047 -0.0387997 0)
(0.356237 -0.0363847 0)
(0.352856 -0.0338278 0)
(0.349881 -0.0312004 0)
(0.347283 -0.0285595 0)
(0.345029 -0.0259473 0)
(0.343085 -0.0233923 0)
(0.34142 -0.0209126 0)
(0.340002 -0.018518 0)
(0.338804 -0.0162118 0)
(0.337802 -0.013993 0)
(0.336974 -0.011857 0)
(0.336303 -0.00979816 0)
(0.335786 -0.00781551 0)
(0.335294 -0.00593193 0)
(0.385969 -0.0403495 0)
(0.380503 -0.04008 0)
(0.375385 -0.0393244 0)
(0.370662 -0.0381635 0)
(0.36628 -0.0366578 0)
(0.362245 -0.0348631 0)
(0.35858 -0.0328459 0)
(0.355284 -0.0306762 0)
(0.352346 -0.0284167 0)
(0.349745 -0.0261187 0)
(0.34746 -0.0238211 0)
(0.345464 -0.0215519 0)
(0.343732 -0.0193301 0)
(0.342241 -0.0171671 0)
(0.340967 -0.0150692 0)
(0.33989 -0.0130377 0)
(0.338993 -0.0110713 0)
(0.338258 -0.00916669 0)
(0.337688 -0.00732492 0)
(0.337139 -0.00556601 0)
(0.386027 -0.0352026 0)
(0.381064 -0.0351339 0)
(0.376383 -0.03463 0)
(0.372001 -0.0337586 0)
(0.367887 -0.0325687 0)
(0.364062 -0.0311067 0)
(0.360548 -0.0294293 0)
(0.357354 -0.0275967 0)
(0.354472 -0.0256635 0)
(0.351893 -0.0236752 0)
(0.349601 -0.0216672 0)
(0.347578 -0.0196661 0)
(0.345804 -0.0176906 0)
(0.344262 -0.0157533 0)
(0.342932 -0.0138616 0)
(0.341799 -0.0120192 0)
(0.340847 -0.0102264 0)
(0.340061 -0.0084823 0)
(0.339448 -0.00678918 0)
(0.338854 -0.00516432 0)
(0.385925 -0.0305416 0)
(0.381406 -0.0306093 0)
(0.377113 -0.0302927 0)
(0.373041 -0.0296482 0)
(0.369179 -0.0287147 0)
(0.365555 -0.0275302 0)
(0.362194 -0.0261424 0)
(0.359108 -0.0246027 0)
(0.356296 -0.0229584 0)
(0.353755 -0.0212493 0)
(0.351474 -0.0195071 0)
(0.349442 -0.0177563 0)
(0.347646 -0.0160149 0)
(0.34607 -0.0142955 0)
(0.344701 -0.0126065 0)
(0.343525 -0.0109525 0)
(0.342532 -0.0093355 0)
(0.341707 -0.00775588 0)
(0.341059 -0.00621702 0)
(0.340428 -0.00473353 0)
(0.385718 -0.0263008 0)
(0.381588 -0.0264554 0)
(0.377637 -0.0262754 0)
(0.373844 -0.0258069 0)
(0.370212 -0.0250805 0)
(0.366776 -0.0241268 0)
(0.363563 -0.0229858 0)
(0.360586 -0.0217008 0)
(0.35785 -0.0203122 0)
(0.355356 -0.0188547 0)
(0.353099 -0.0173561 0)
(0.351072 -0.0158386 0)
(0.349266 -0.0143188 0)
(0.347671 -0.0128091 0)
(0.346275 -0.0113178 0)
(0.34507 -0.0098503 0)
(0.344045 -0.00840946 0)
(0.34319 -0.00699671 0)
(0.342516 -0.00561598 0)
(0.341855 -0.00427945 0)
(0.385452 -0.0224197 0)
(0.381659 -0.0226237 0)
(0.378005 -0.0225403 0)
(0.374456 -0.0222071 0)
(0.371031 -0.0216473 0)
(0.367767 -0.0208856 0)
(0.364693 -0.0199549 0)
(0.361822 -0.0188916 0)
(0.359163 -0.01773 0)
(0.356721 -0.0164995 0)
(0.354494 -0.0152244 0)
(0.352481 -0.0139242 0)
(0.350676 -0.0126142 0)
(0.349071 -0.0113055 0)
(0.34766 -0.0100066 0)
(0.346434 -0.00872273 0)
(0.345387 -0.00745738 0)
(0.344509 -0.00621259 0)
(0.343814 -0.0049925 0)
(0.343131 -0.00380711 0)
(0.385161 -0.0188433 0)
(0.381656 -0.0190684 0)
(0.378255 -0.0190506 0)
(0.374919 -0.01882 0)
(0.371675 -0.018394 0)
(0.368566 -0.0177921 0)
(0.365617 -0.0170414 0)
(0.362844 -0.016172 0)
(0.360259 -0.0152124 0)
(0.35787 -0.0141874 0)
(0.355678 -0.013118 0)
(0.353684 -0.0120208 0)
(0.351885 -0.0109093 0)
(0.350278 -0.00979357 0)
(0.348858 -0.00868131 0)
(0.34762 -0.00757781 0)
(0.346557 -0.00648655 0)
(0.345663 -0.00540988 0)
(0.344953 -0.00435192 0)
(0.344252 -0.0033207 0)
(0.384871 -0.0155214 0)
(0.381608 -0.0157466 0)
(0.37842 -0.0157706 0)
(0.375263 -0.0156169 0)
(0.372177 -0.0152982 0)
(0.369201 -0.0148299 0)
(0.366363 -0.0142339 0)
(0.363678 -0.013535 0)
(0.361162 -0.0127564 0)
(0.358822 -0.0119188 0)
(0.356664 -0.0110394 0)
(0.354691 -0.0101325 0)
(0.352904 -0.0092095 0)
(0.351299 -0.00827916 0)
(0.349876 -0.00734825 0)
(0.348629 -0.00642164 0)
(0.347557 -0.00550266 0)
(0.346651 -0.00459371 0)
(0.34593 -0.00369861 0)
(0.345216 -0.0028237 0)
(0.3846 -0.0124086 0)
(0.381537 -0.0126187 0)
(0.378524 -0.0126662 0)
(0.375517 -0.012569 0)
(0.372561 -0.0123365 0)
(0.369698 -0.0119806 0)
(0.366954 -0.0115189 0)
(0.364345 -0.0109712 0)
(0.361888 -0.0103563 0)
(0.359592 -0.00969072 0)
(0.357467 -0.00898847 0)
(0.355515 -0.00826106 0)
(0.353739 -0.00751782 0)
(0.35214 -0.00676613 0)
(0.350716 -0.00601168 0)
(0.349466 -0.00525865 0)
(0.348386 -0.00451004 0)
(0.347473 -0.00376806 0)
(0.346744 -0.00303605 0)
(0.346021 -0.00231892 0)
(0.384365 -0.00946405 0)
(0.381461 -0.00964794 0)
(0.378589 -0.00970481 0)
(0.375701 -0.00964799 0)
(0.372849 -0.00948475 0)
(0.370077 -0.00922443 0)
(0.367408 -0.00888079 0)
(0.364861 -0.00846919 0)
(0.362452 -0.00800415 0)
(0.360194 -0.00749838 0)
(0.358096 -0.00696265 0)
(0.356163 -0.00640585 0)
(0.354399 -0.00583522 0)
(0.352806 -0.00525653 0)
(0.351384 -0.0046743 0)
(0.350132 -0.00409192 0)
(0.349048 -0.00351184 0)
(0.34813 -0.00293596 0)
(0.347395 -0.00236697 0)
(0.346666 -0.00180862 0)
(0.384178 -0.00665342 0)
(0.381398 -0.00680194 0)
(0.378632 -0.00685579 0)
(0.375833 -0.00682584 0)
(0.373059 -0.00671834 0)
(0.370353 -0.00654057 0)
(0.36774 -0.00630267 0)
(0.365239 -0.00601575 0)
(0.362867 -0.00569019 0)
(0.360638 -0.005335 0)
(0.358561 -0.00495776 0)
(0.356643 -0.00456475 0)
(0.354889 -0.0041611 0)
(0.353302 -0.00375095 0)
(0.351881 -0.00333755 0)
(0.350629 -0.00292338 0)
(0.349544 -0.00251026 0)
(0.348622 -0.00209963 0)
(0.347884 -0.00169341 0)
(0.34715 -0.00129476 0)
(0.384055 -0.00394892 0)
(0.381364 -0.00404947 0)
(0.37867 -0.0040877 0)
(0.375927 -0.00407297 0)
(0.373201 -0.00401093 0)
(0.370537 -0.00390662 0)
(0.367959 -0.00376623 0)
(0.365488 -0.00359644 0)
(0.363141 -0.00340344 0)
(0.360931 -0.00319257 0)
(0.358868 -0.0029683 0)
(0.356961 -0.00273433 0)
(0.355214 -0.00249371 0)
(0.35363 -0.0022489 0)
(0.352212 -0.00200187 0)
(0.35096 -0.0017541 0)
(0.349873 -0.00150673 0)
(0.34895 -0.00126067 0)
(0.348209 -0.0010168 0)
(0.347473 -0.000778959 0)
(0.384027 -0.00127205 0)
(0.381374 -0.00133316 0)
(0.378707 -0.00135544 0)
(0.375986 -0.00135352 0)
(0.373278 -0.0013338 0)
(0.370631 -0.00129947 0)
(0.36807 -0.00125299 0)
(0.365613 -0.00119671 0)
(0.363277 -0.00113271 0)
(0.361076 -0.00106277 0)
(0.359021 -0.000988342 0)
(0.357119 -0.000910653 0)
(0.355375 -0.000830706 0)
(0.353794 -0.000749319 0)
(0.352377 -0.000667144 0)
(0.351125 -0.000584685 0)
(0.350038 -0.000502314 0)
(0.349114 -0.00042035 0)
(0.348371 -0.000338942 0)
(0.347635 -0.000260378 0)
(0.46962 0.0018689 3.63215e-21)
(0.469106 -0.0140268 0)
(0.466083 -0.0299789 -7.92413e-22)
(0.460553 -0.0456938 -2.40752e-20)
(0.452591 -0.0608356 4.65112e-20)
(0.442318 -0.0750492 0)
(0.429988 -0.0880083 4.19502e-20)
(0.415696 -0.0992635 0)
(0.400629 -0.108687 3.88934e-20)
(0.380842 -0.115793 -5.91642e-22)
(0.460079 0.0015828 -3.7097e-21)
(0.459686 -0.0121595 8.51443e-22)
(0.457098 -0.0259348 -8.52978e-22)
(0.452366 -0.0394849 -3.21118e-22)
(0.445594 -0.0525401 -2.25257e-20)
(0.436896 -0.0648245 -1.45305e-21)
(0.426557 -0.0761124 0)
(0.414366 -0.0860655 -4.11722e-20)
(0.402198 -0.0947275 0)
(0.383534 -0.101941 -3.75063e-20)
(0.451858 0.00117345 7.47934e-21)
(0.451488 -0.0106719 0)
(0.44924 -0.0225581 -8.18185e-22)
(0.445156 -0.0342635 5.36706e-22)
(0.439334 -0.0455739 2.4009e-20)
(0.431861 -0.0562726 0)
(0.423051 -0.0661817 4.24759e-20)
(0.412522 -0.0750432 4.23158e-20)
(0.402595 -0.0828051 0)
(0.386213 -0.0897348 3.71185e-20)
(0.444797 0.000900678 -3.30925e-21)
(0.444445 -0.00931001 1.39488e-20)
(0.442479 -0.0195488 0)
(0.438939 -0.0296398 2.57099e-20)
(0.433918 -0.0394115 1.48855e-21)
(0.427484 -0.0486932 -2.90168e-21)
(0.419962 -0.0573357 -4.09537e-20)
(0.410893 -0.0651703 -1.34189e-21)
(0.402589 -0.0720598 -3.99559e-20)
(0.388374 -0.0786492 0)
(0.43872 0.000685074 0)
(0.438371 -0.00814413 -1.35906e-20)
(0.436626 -0.0169923 -1.55542e-20)
(0.433522 -0.0257178 2.42986e-21)
(0.429145 -0.0341816 -1.59075e-21)
(0.423553 -0.0422506 -1.42631e-21)
(0.417054 -0.0497982 -4.18884e-20)
(0.409191 -0.0567294 -2.63161e-21)
(0.402054 -0.0628437 7.83856e-22)
(0.389827 -0.0689238 3.80176e-20)
(0.433466 0.000517079 3.86129e-21)
(0.433116 -0.00713389 8.93946e-22)
(0.431547 -0.0147958 -1.82759e-21)
(0.428792 -0.0223544 8.4755e-22)
(0.424935 -0.0296972 -2.51225e-20)
(0.420025 -0.0367201 0)
(0.414345 -0.0433138 4.59336e-20)
(0.407489 -0.0494316 -1.36113e-21)
(0.401249 -0.0548441 8.01944e-20)
(0.390743 -0.0603427 -7.5715e-20)
(0.428904 0.000389997 -3.88032e-21)
(0.428556 -0.00624619 -7.41761e-21)
(0.427129 -0.0128871 1.4025e-20)
(0.424659 -0.0194402 -2.5131e-20)
(0.421221 -0.0258139 -1.80227e-21)
(0.416867 -0.0319263 -2.39741e-20)
(0.411844 -0.0376834 1.37255e-21)
(0.40582 -0.0430682 -2.66401e-21)
(0.40028 -0.0478546 -3.87383e-20)
(0.391209 -0.0527709 3.76999e-20)
(0.424935 0.000293786 0)
(0.424589 -0.00546155 1.58436e-20)
(0.42328 -0.0112176 -1.77439e-21)
(0.421041 -0.0168991 1.42046e-20)
(0.417943 -0.0224308 -1.61913e-22)
(0.41404 -0.0277476 4.66487e-20)
(0.409543 -0.0327698 -2.13291e-20)
(0.404198 -0.0374958 0)
(0.39921 -0.0417199 0)
(0.391321 -0.0460761 0)
(0.421478 0.000220753 0)
(0.421137 -0.00476392 -1.41372e-20)
(0.419924 -0.00974721 -9.16388e-22)
(0.417874 -0.0146674 1.3531e-20)
(0.415052 -0.0194625 2.55849e-20)
(0.411513 -0.02408 -2.56142e-20)
(0.407439 -0.0284532 2.5591e-20)
(0.402643 -0.0325862 -1.37824e-21)
(0.398093 -0.0363016 0)
(0.391172 -0.0401326 1.90052e-20)
(0.418471 0.000165218 4.86258e-22)
(0.418135 -0.00413986 8.01706e-21)
(0.417002 -0.00844281 1.26449e-20)
(0.415106 -0.0126928 -7.91545e-22)
(0.412508 -0.0168388 1.65582e-21)
(0.409264 -0.0208377 -2.59092e-20)
(0.40553 -0.0246342 2.5853e-20)
(0.401176 -0.0282333 -1.38145e-21)
(0.396973 -0.0314865 0)
(0.390841 -0.0348327 -3.77763e-20)
(0.415864 0.000122971 0)
(0.415533 -0.00357814 7.65371e-21)
(0.414466 -0.00727728 4.6745e-23)
(0.412695 -0.0109326 0)
(0.41028 -0.0145021 0)
(0.407275 -0.0179501 2.29297e-20)
(0.403813 -0.021231 -2.14625e-20)
(0.399813 -0.0243484 -1.3128e-21)
(0.395886 -0.0271805 6.8145e-22)
(0.390395 -0.030083 1.93779e-20)
(0.413616 9.09268e-05 0)
(0.41329 -0.00306913 -1.44559e-20)
(0.412277 -0.00622797 -1.64395e-20)
(0.410609 -0.00935137 2.57758e-21)
(0.408341 -0.0124047 -1.67475e-21)
(0.405528 -0.0153585 -1.49917e-21)
(0.402285 -0.0181752 2.88489e-21)
(0.398568 -0.0208563 1.89399e-20)
(0.394858 -0.0233033 1.90681e-21)
(0.389888 -0.0258014 -6.02645e-22)
(0.411693 6.68039e-05 0)
(0.411371 -0.0026045 7.74329e-21)
(0.410402 -0.00527571 -8.99525e-22)
(0.408818 -0.00791909 8.92047e-22)
(0.406669 -0.0105064 0)
(0.404012 -0.0130132 0)
(0.400944 -0.0154089 0)
(0.397452 -0.0176929 -2.15435e-20)
(0.393912 -0.0197861 2.01606e-20)
(0.389362 -0.0219153 0)
(0.410067 4.89141e-05 0)
(0.409748 -0.00217699 4.858e-21)
(0.408816 -0.00440409 6.47101e-21)
(0.407299 -0.00661032 8.7299e-21)
(0.405247 -0.00877297 -1.69081e-21)
(0.402713 -0.010872 1.08994e-20)
(0.399785 -0.0128825 -1.012e-20)
(0.39647 -0.0148026 0)
(0.393062 -0.0165691 6.9231e-22)
(0.388849 -0.0183604 -1.92209e-20)
(0.408715 3.60404e-05 -1.02903e-21)
(0.408399 -0.00178016 -3.92274e-21)
(0.407495 -0.00359893 -8.35968e-21)
(0.406033 -0.00540314 -6.13725e-21)
(0.404057 -0.007175 0)
(0.401622 -0.00889832 -1.39242e-20)
(0.398804 -0.0105533 1.4481e-20)
(0.395626 -0.012137 -1.38382e-21)
(0.392319 -0.0135996 -9.94771e-21)
(0.388372 -0.0150793 2.77045e-20)
(0.407617 2.75152e-05 1.03432e-21)
(0.407302 -0.00140815 -2.98584e-21)
(0.406421 -0.0028477 2.7937e-21)
(0.405001 -0.00427843 -7.08956e-21)
(0.403086 -0.0056869 0)
(0.400727 -0.00706049 0)
(0.397995 -0.00838384 1.41533e-21)
(0.394922 -0.00965366 -1.34846e-20)
(0.39169 -0.0108313 -8.67001e-21)
(0.387949 -0.0120212 -9.16947e-21)
(0.406754 2.26968e-05 0)
(0.40644 -0.00105558 4.94287e-21)
(0.405576 -0.00213886 -1.88041e-21)
(0.40419 -0.00321849 6.28177e-21)
(0.402321 -0.00428498 1.71043e-21)
(0.40002 -0.00532914 -1.52356e-21)
(0.397352 -0.00633966 2.90464e-21)
(0.394357 -0.00731354 9.36294e-21)
(0.39118 -0.00822181 0)
(0.387593 -0.00914039 0)
(0.406113 1.99708e-05 0)
(0.405798 -0.000720369 1.99857e-21)
(0.404947 -0.00146644 -3.7878e-21)
(0.403585 -0.00221303 0)
(0.40175 -0.00295426 -3.35486e-21)
(0.399491 -0.00368425 -1.52649e-21)
(0.396869 -0.00439561 -4.32413e-21)
(0.393929 -0.00508644 -1.30764e-21)
(0.390789 -0.00573674 6.66914e-22)
(0.387312 -0.00639886 5.81755e-22)
(0.405677 2.74014e-05 0)
(0.405361 -0.000394026 -2.00823e-21)
(0.404519 -0.000821318 -1.8843e-21)
(0.403174 -0.00125252 2.67237e-21)
(0.401363 -0.00168488 1.6391e-21)
(0.399133 -0.00211541 1.5673e-21)
(0.396542 -0.00254006 7.21561e-21)
(0.393639 -0.00295817 -5.356e-21)
(0.390523 -0.00335817 1.26173e-21)
(0.387119 -0.00377476 0)
(0.40543 2.84873e-05 0)
(0.405115 -4.12945e-05 9.94847e-22)
(0.404279 -0.000118776 -9.6355e-22)
(0.402945 -0.000206877 9.2687e-22)
(0.401151 -0.00030818 0)
(0.398942 -0.000425412 -1.57531e-21)
(0.396375 -0.000561325 1.42178e-21)
(0.393499 -0.000720566 1.30362e-21)
(0.390406 -0.000904633 0)
(0.387051 -0.00113554 0)
(0.356567 0.116722 0)
(0.355052 0.129069 -4.8398e-20)
(0.35554 0.143674 0)
(0.355351 0.16113 -1.60426e-19)