/*--------------------------------*- C++ -*----------------------------------*\
| =========                 |                                                 |
| \\      /  F ield         | OpenFOAM: The Open Source CFD Toolbox           |
|  \\    /   O peration     | Version:  4.1                                   |
|   \\  /    A nd           | Web:      www.OpenFOAM.org                      |
|    \\/     M anipulation  |                                                 |
\*---------------------------------------------------------------------------*/
FoamFile
{
    version     2.0;
    format      ascii;
    class       volScalarField;
    location    "5.1";
    object      p;
}
// * * * * * * * * * * * * * * * * * * * * * * * * * * * * * * * * * * * * * //

dimensions      [0 2 -2 0 0 0 0];

internalField   nonuniform List<scalar> 
2000
(
-0.297315
-0.285415
-0.275867
-0.266732
-0.256658
-0.244291
-0.228764
-0.210355
-0.188327
-0.167003
-0.318071
-0.303248
-0.291442
-0.279228
-0.264675
-0.246866
-0.225881
-0.202607
-0.17773
-0.154331
-0.341872
-0.323652
-0.308957
-0.292391
-0.271799
-0.247399
-0.220485
-0.19262
-0.164836
-0.138861
-0.368039
-0.346095
-0.327567
-0.304961
-0.276762
-0.244988
-0.212137
-0.180074
-0.149787
-0.122644
-0.395565
-0.369538
-0.345802
-0.315235
-0.278158
-0.238729
-0.200239
-0.164406
-0.131943
-0.103215
-0.422668
-0.392327
-0.361551
-0.321208
-0.274576
-0.227734
-0.184159
-0.145085
-0.11068
-0.080555
-0.446879
-0.412149
-0.372293
-0.320853
-0.264726
-0.211161
-0.163217
-0.121405
-0.0852879
-0.0537682
-0.465243
-0.426086
-0.375478
-0.31241
-0.247511
-0.188239
-0.136758
-0.0927646
-0.0551872
-0.022478
-0.474693
-0.431002
-0.368749
-0.294474
-0.222046
-0.158276
-0.10417
-0.0586182
-0.019966
0.0135598
-0.472424
-0.424049
-0.350094
-0.26599
-0.187658
-0.120695
-0.0649115
-0.0184993
0.0206499
0.0543349
-0.187266
-0.192354
-0.193489
-0.193012
-0.191037
-0.18713
-0.181035
-0.172723
-0.162478
-0.150848
-0.19104
-0.19564
-0.196691
-0.196358
-0.194651
-0.191077
-0.185296
-0.177114
-0.167092
-0.155452
-0.198034
-0.201642
-0.202502
-0.202343
-0.201044
-0.198044
-0.192963
-0.185682
-0.175525
-0.163106
-0.207232
-0.209463
-0.209906
-0.209763
-0.208786
-0.206332
-0.201878
-0.195002
-0.185152
-0.172345
-0.21762
-0.218213
-0.217916
-0.217464
-0.216535
-0.214408
-0.210406
-0.203957
-0.194446
-0.18059
-0.228496
-0.227292
-0.22593
-0.22476
-0.223454
-0.221275
-0.217381
-0.211026
-0.201923
-0.186565
-0.239658
-0.236586
-0.233861
-0.231613
-0.229522
-0.226857
-0.222598
-0.215755
-0.206758
-0.189981
-0.251423
-0.246415
-0.242131
-0.238511
-0.23533
-0.231667
-0.226382
-0.218388
-0.208626
-0.190949
-0.264464
-0.257399
-0.251467
-0.246344
-0.241611
-0.236192
-0.228824
-0.218769
-0.206804
-0.18895
-0.279553
-0.27022
-0.262568
-0.255677
-0.248757
-0.240504
-0.229638
-0.215996
-0.199651
-0.18193
-0.13854
-0.124511
-0.109375
-0.0935728
-0.0773866
-0.061093
-0.0452879
-0.030241
-0.0162953
-0.00375361
0.00712966
0.0161497
0.0231505
0.0280207
0.0306852
0.0310991
0.0291972
0.0250737
0.0179855
0.0104965
-0.144304
-0.130166
-0.114851
-0.0987858
-0.0823781
-0.0659143
-0.049824
-0.0344913
-0.0202604
-0.00743788
0.00371565
0.0129916
0.0202334
0.0253328
0.0282207
0.0288671
0.0272109
0.0234108
0.0166823
0.00971276
-0.15471
-0.140022
-0.124272
-0.108014
-0.0912943
-0.0744524
-0.057924
-0.042117
-0.0273979
-0.0140891
-0.00246204
0.00726799
0.0149437
0.0204624
0.023766
0.0248498
0.0236663
0.0204513
0.0144643
0.00823481
-0.165934
-0.15219
-0.135887
-0.119202
-0.102183
-0.0849688
-0.0679681
-0.0516312
-0.0363568
-0.0224855
-0.0103002
-2.31624e-05
0.00818808
0.0142386
0.0180848
0.019751
0.0192151
0.0167687
0.0118026
0.00649538
-0.176515
-0.163974
-0.147317
-0.13026
-0.113063
-0.0956171
-0.0782551
-0.061473
-0.0457137
-0.0313368
-0.0186334
-0.00783006
0.000918249
0.0075245
0.0119632
0.0142799
0.0144954
0.0129025
0.0091172
0.00478545
-0.184317
-0.173126
-0.156543
-0.139346
-0.12218
-0.104751
-0.087273
-0.0702669
-0.05422
-0.039513
-0.0264424
-0.0152358
-0.00604139
0.00105932
0.00606193
0.00901558
0.0100012
0.00924897
0.00666582
0.00326103
-0.188375
-0.177966
-0.161849
-0.144964
-0.128147
-0.111035
-0.093783
-0.0768996
-0.0608836
-0.0461297
-0.0329397
-0.0215403
-0.0120701
-0.00460931
0.000859101
0.00436747
0.00606374
0.00606641
0.00458494
0.001997
-0.188489
-0.177878
-0.162401
-0.146348
-0.130211
-0.113729
-0.0971034
-0.0807772
-0.0652056
-0.0507769
-0.0377899
-0.0264666
-0.0169344
-0.0092815
-0.00347579
0.000479358
0.00279289
0.00344733
0.00291325
0.00101879
-0.185047
-0.17407
-0.159561
-0.144395
-0.129054
-0.113546
-0.097954
-0.0825496
-0.067735
-0.053907
-0.0413589
-0.0303014
-0.0208526
-0.0131205
-0.0070699
-0.00275243
8.87307e-05
0.00130687
0.00157365
0.000285035
-0.177311
-0.16714
-0.153507
-0.138541
-0.123784
-0.10939
-0.0950571
-0.0808293
-0.0670556
-0.0541242
-0.0423131
-0.0318272
-0.0227727
-0.0152684
-0.00926931
-0.00486682
-0.00176628
-0.000214578
0.000601144
-0.000231521
-0.152369
-0.15146
-0.13934
-0.124341
-0.110354
-0.0974298
-0.0847834
-0.0722164
-0.0600268
-0.0485992
-0.0381838
-0.0289484
-0.0209581
-0.0143206
-0.00896886
-0.00502323
-0.00216118
-0.000713488
0.000220526
-0.000481799
-0.126356
-0.129919
-0.119578
-0.105346
-0.092687
-0.0817638
-0.0713541
-0.060951
-0.0507686
-0.0411939
-0.0324674
-0.0247285
-0.0180147
-0.0124247
-0.00788919
-0.00454864
-0.00208062
-0.000864618
2.92023e-05
-0.00064229
-0.10118
-0.106958
-0.0990521
-0.0868874
-0.0761641
-0.0672684
-0.0589244
-0.0504952
-0.0421302
-0.0342084
-0.0269697
-0.0205444
-0.014957
-0.0103033
-0.00651376
-0.00374405
-0.00167555
-0.000721893
5.18184e-05
-0.000674376
-0.0769269
-0.0841972
-0.0789169
-0.0692693
-0.0606099
-0.0535501
-0.0469974
-0.0403182
-0.0336037
-0.0271965
-0.0213252
-0.0161155
-0.0115847
-0.0078259
-0.00476909
-0.00258068
-0.00094995
-0.000315622
0.000245988
-0.000630045
-0.0541148
-0.0625093
-0.0596819
-0.0525434
-0.0459189
-0.0405666
-0.035629
-0.0305374
-0.0253385
-0.0203275
-0.0157155
-0.0116265
-0.00807718
-0.00516056
-0.0028082
-0.0011952
-2.1319e-05
0.000257366
0.000546027
-0.000539375
-0.0332423
-0.0423539
-0.0416436
-0.0368327
-0.0321431
-0.0283863
-0.0249167
-0.0212559
-0.0174283
-0.0136865
-0.0102222
-0.00715881
-0.00451538
-0.00238672
-0.000707023
0.000342205
0.0010504
0.000950278
0.000925418
-0.000412833
-0.0143803
-0.0238783
-0.0249425
-0.0222198
-0.0193153
-0.0170274
-0.0148853
-0.0125067
-0.00991151
-0.00731792
-0.00489816
-0.00277348
-0.000966229
0.000426311
0.00146675
0.00196891
0.00221169
0.00172084
0.00135709
-0.000264114
0.00259423
-0.0070995
-0.00963728
-0.00874559
-0.00744818
-0.0064914
-0.00554342
-0.0043125
-0.00282298
-0.0012657
0.000205383
0.00147225
0.0025096
0.00321738
0.00365463
0.0036317
0.00341744
0.00253364
0.00181852
-0.000103026
0.0177924
0.00801629
0.00426465
0.00357705
0.00345345
0.0032195
0.00309897
0.00330506
0.00380538
0.00443088
0.00504387
0.00553005
0.00586164
0.00593599
0.00580847
0.00528685
0.00463072
0.00336011
0.00229176
6.32385e-05
0.0313166
0.0215386
0.016792
0.014755
0.0133901
0.0121024
0.0110324
0.0103275
0.00994681
0.00973877
0.00957974
0.00935926
0.00904759
0.00853991
0.00788811
0.00689811
0.0058211
0.00417688
0.00276224
0.000229064
0.0432788
0.0335515
0.0279895
0.0248058
0.0223663
0.0201555
0.018249
0.0167397
0.015579
0.01463
0.0137811
0.0129254
0.0120318
0.0109938
0.00986017
0.00843554
0.00696356
0.00496491
0.00321808
0.00039004
0.0537829
0.0441354
0.0379049
0.033752
0.0303906
0.0273794
0.024743
0.0225294
0.0206838
0.0190815
0.0176212
0.0161996
0.0147846
0.0132685
0.0116971
0.00987454
0.00803762
0.0057087
0.00364968
0.000542658
0.0629164
0.0533624
0.046586
0.0416196
0.0374749
0.0337776
0.0305113
0.0276875
0.0252465
0.0230742
0.0210782
0.0191583
0.0172817
0.0153399
0.0133764
0.011195
0.0090266
0.00639566
0.00404924
0.000684096
0.0707544
0.061298
0.0540785
0.0484359
0.0436332
0.0393552
0.0355529
0.0322076
0.0292561
0.0265933
0.0241343
0.021782
0.019503
0.0171884
0.0148797
0.0123806
0.00991694
0.00701557
0.00441045
0.000812078
0.0773627
0.0680001
0.0604245
0.054227
0.0488801
0.044119
0.0398684
0.0360855
0.0327041
0.0296269
0.0267756
0.0240554
0.0214327
0.0187983
0.0161922
0.0134182
0.0106977
0.00756022
0.00472826
0.000924769
0.0827973
0.0735185
0.0656611
0.0590173
0.0532299
0.0480761
0.0434599
0.0393187
0.0355844
0.0321662
0.0289911
0.0259662
0.0230579
0.020157
0.017302
0.0142972
0.0113603
0.00802311
0.0049986
0.0010207
0.0871024
0.0778927
0.0698177
0.0628264
0.0566949
0.0512334
0.0463297
0.0419061
0.0378929
0.0342047
0.0307724
0.0275051
0.0243689
0.0212547
0.0182
0.0150095
0.0118978
0.00839914
0.00521832
0.00109873
0.0903121
0.0811517
0.0729156
0.0656681
0.0592835
0.0535954
0.0484794
0.0438466
0.0396264
0.0357372
0.0321132
0.0286649
0.0253582
0.0220841
0.0188791
0.0155488
0.0123051
0.00868445
0.00538504
0.00115824
0.0924685
0.0833294
0.0749786
0.0675578
0.0610048
0.0551672
0.0499114
0.0451404
0.040783
0.0367606
0.0330094
0.0294409
0.0260206
0.0226399
0.0193345
0.015911
0.0125782
0.0088769
0.00549569
0.00120167
0.0935994
0.0844535
0.0760304
0.068513
0.0618703
0.0559557
0.0506291
0.0457886
0.0413623
0.0372731
0.0334581
0.0298297
0.0263521
0.0229192
0.0195617
0.0160946
0.0127119
0.00897915
0.00554195
0.00124068
0.0821758
0.0422654
0.00659664
-0.0247264
-0.0518366
-0.0749239
-0.0945828
-0.111115
-0.124878
-0.141608
0.105838
0.0677042
0.0336221
0.00345846
-0.0227657
-0.0455023
-0.0644469
-0.0815426
-0.0946
-0.112355
0.126811
0.0906875
0.0583873
0.0295206
0.00435706
-0.0180584
-0.036636
-0.054476
-0.068048
-0.0853242
0.145327
0.110961
0.0801224
0.0522659
0.0278903
0.00568374
-0.012836
-0.0308477
-0.0447923
-0.060854
0.161634
0.128739
0.099091
0.0720803
0.0483384
0.026495
0.00815475
-0.00936773
-0.0233191
-0.0383094
0.176014
0.144403
0.115798
0.0896079
0.0664923
0.0452274
0.0272126
0.0103256
-0.00362429
-0.0179619
0.188725
0.158267
0.130604
0.10522
0.0827159
0.0620778
0.0443636
0.0279588
0.0140181
0.000175859
0.199975
0.170553
0.143738
0.119109
0.0971561
0.0770787
0.0596215
0.0436011
0.0297903
0.0164111
0.209926
0.181431
0.155372
0.131425
0.109965
0.0903823
0.0731944
0.0575343
0.0439288
0.0309475
0.218706
0.191038
0.165655
0.142319
0.12131
0.102176
0.0852727
0.069938
0.0565337
0.0438818
0.226424
0.199491
0.174712
0.151922
0.131331
0.112599
0.0959675
0.0809101
0.0676832
0.0553162
0.233173
0.206889
0.182647
0.160343
0.140131
0.121752
0.105367
0.0905467
0.0774774
0.0653575
0.23903
0.213317
0.189547
0.167669
0.147797
0.129725
0.113558
0.0989421
0.0860085
0.0740936
0.244039
0.218832
0.195477
0.173972
0.154401
0.136593
0.120617
0.106173
0.0933494
0.0815967
0.248245
0.223472
0.20049
0.179312
0.160003
0.142422
0.126606
0.112301
0.0995609
0.0879294
0.251681
0.227286
0.204632
0.183738
0.164654
0.147261
0.131577
0.117379
0.104695
0.0931457
0.254388
0.230316
0.207942
0.187288
0.168392
0.151152
0.135568
0.121446
0.108794
0.0972888
0.256393
0.232592
0.210453
0.189995
0.171251
0.154128
0.138617
0.12454
0.111891
0.100392
0.257711
0.234135
0.212191
0.191896
0.173272
0.156236
0.14077
0.12671
0.114039
0.102506
0.258294
0.234889
0.213092
0.19292
0.174388
0.157416
0.141979
0.127926
0.115228
0.103648
0.650941
0.650191
0.641131
0.62513
0.602944
0.573342
0.532871
0.476985
0.406008
0.360118
0.594329
0.587358
0.569441
0.546158
0.517498
0.480522
0.431023
0.364547
0.281779
0.227802
0.534756
0.520965
0.496172
0.466822
0.431862
0.387446
0.329187
0.252982
0.159481
0.099287
0.468655
0.450023
0.421042
0.387226
0.346753
0.29549
0.22927
0.144813
0.0420502
-0.0215614
0.400732
0.378191
0.346068
0.308587
0.263363
0.206151
0.132975
0.0419063
-0.0669893
-0.131282
0.334253
0.308151
0.273334
0.232674
0.183383
0.12124
0.0423718
-0.0548148
-0.16258
-0.227892
0.270441
0.241215
0.204229
0.161019
0.108461
0.04253
-0.0403487
-0.140103
-0.245149
-0.309704
0.210099
0.178284
0.139754
0.0947879
0.0399279
-0.0284926
-0.113162
-0.212839
-0.313513
-0.37534
0.15374
0.120027
0.0808887
0.0347327
-0.0215127
-0.0908292
-0.175303
-0.272383
-0.366281
-0.424092
0.100537
0.0671935
0.028007
-0.0186106
-0.0751301
-0.143949
-0.226322
-0.31817
-0.402955
-0.456124
1.03528
1.04877
1.06481
1.08345
1.10466
1.12816
1.15318
1.17756
1.19889
1.22432
1.02904
1.04153
1.0568
1.07464
1.09484
1.11709
1.14059
1.16309
1.18217
1.20591
1.01644
1.02697
1.04075
1.05701
1.07522
1.095
1.11545
1.1342
1.14899
1.16916
0.997303
1.00502
1.01665
1.03059
1.04589
1.06204
1.07802
1.09128
1.09979
1.11473
0.971438
0.975612
0.98453
0.995487
1.00702
1.01849
1.0287
1.03486
1.03525
1.04352
0.93863
0.938653
0.944378
0.951794
0.958837
0.964723
0.96804
0.965695
0.956333
0.95676
0.898855
0.894316
0.896588
0.900016
0.90192
0.901408
0.896856
0.88484
0.86434
0.856078
0.851177
0.84197
0.841054
0.840446
0.836835
0.829371
0.816248
0.793695
0.760986
0.743516
0.796404
0.782835
0.779146
0.774095
0.764421
0.749589
0.727483
0.693919
0.648424
0.6214
0.729401
0.717224
0.712419
0.702494
0.686303
0.663827
0.632437
0.587611
0.529196
0.492509
0.998525
0.995615
0.993135
0.990979
0.988989
0.987167
0.985597
0.984357
0.983512
0.983127
0.983276
0.984037
0.985495
0.987742
0.990881
0.995023
1.00029
1.0068
1.01471
1.02411
0.998466
0.995478
0.992895
0.990607
0.988477
0.986517
0.984803
0.98341
0.982401
0.981836
0.981791
0.982341
0.983559
0.985532
0.988355
0.992131
0.996972
1.00298
1.0103
1.01895
0.998381
0.995205
0.992382
0.989831
0.987435
0.985203
0.983204
0.981505
0.980162
0.979233
0.978795
0.978923
0.979666
0.981089
0.983276
0.986313
0.990294
0.995289
1.0014
1.00852
0.998243
0.994767
0.991581
0.988642
0.985852
0.983215
0.980789
0.978632
0.976791
0.975306
0.974273
0.973742
0.973761
0.97436
0.975588
0.977498
0.980157
0.983578
0.987822
0.992569
0.998048
0.994159
0.990488
0.987033
0.983718
0.980539
0.977537
0.974756
0.972238
0.970039
0.968219
0.966795
0.965796
0.965259
0.965196
0.96559
0.966452
0.967705
0.969382
0.970836
0.997792
0.99337
0.989092
0.984995
0.981024
0.977168
0.973452
0.969908
0.96651
0.963444
0.960648
0.958099
0.955812
0.953787
0.952021
0.950446
0.949015
0.947482
0.945864
0.943028
0.997468
0.992386
0.987384
0.982524
0.97777
0.9731
0.968513
0.963954
0.959691
0.955591
0.95159
0.947678
0.943847
0.940043
0.936205
0.932171
0.927864
0.922837
0.917235
0.90912
0.997076
0.991206
0.985346
0.979589
0.973922
0.968261
0.962595
0.957175
0.951827
0.946457
0.941043
0.935553
0.929933
0.924057
0.917815
0.910904
0.903213
0.893907
0.883333
0.868329
0.996648
0.989925
0.983156
0.976304
0.969508
0.962838
0.956291
0.949698
0.943002
0.936173
0.929162
0.921881
0.914226
0.905989
0.897019
0.886829
0.875368
0.861213
0.845236
0.821976
0.996039
0.988104
0.980161
0.972359
0.964576
0.956757
0.94887
0.940858
0.932662
0.9242
0.915377
0.906038
0.896019
0.884987
0.872719
0.858389
0.841997
0.821038
0.797681
0.762705
0.995644
0.98693
0.978193
0.969413
0.960538
0.951534
0.942365
0.932964
0.923241
0.91308
0.902345
0.890831
0.878325
0.864419
0.848804
0.830562
0.809374
0.782644
0.750126
0.702809
0.995266
0.985797
0.976258
0.9666
0.956807
0.946845
0.936657
0.926156
0.91524
0.903775
0.891613
0.87853
0.864303
0.848512
0.830848
0.81045
0.78698
0.758632
0.725504
0.685286
0.994892
0.984679
0.974345
0.963843
0.953172
0.942295
0.931138
0.919603
0.907583
0.894938
0.881515
0.867093
0.851452
0.834208
0.815076
0.793373
0.768839
0.740409
0.708106
0.670642
0.99452
0.98357
0.972449
0.961107
0.949563
0.937779
0.925673
0.91314
0.900065
0.886311
0.871726
0.856098
0.83922
0.820758
0.800464
0.777813
0.752615
0.724116
0.692313
0.656041
0.994153
0.982477
0.970582
0.958416
0.946016
0.933355
0.920342
0.906865
0.89281
0.878041
0.862413
0.845729
0.827803
0.808346
0.787155
0.76381
0.738181
0.709655
0.678352
0.643236
0.993793
0.98141
0.968766
0.955802
0.94258
0.929083
0.915215
0.900863
0.885909
0.870227
0.853679
0.836088
0.817289
0.797037
0.775167
0.751336
0.72547
0.697066
0.666346
0.632371
0.993444
0.98038
0.96702
0.953294
0.939292
0.925006
0.910342
0.895182
0.879413
0.862915
0.845562
0.827198
0.807678
0.786793
0.764416
0.740264
0.714309
0.686139
0.656007
0.623067
0.99311
0.979397
0.96536
0.950916
0.936179
0.921157
0.905758
0.889861
0.873358
0.856136
0.838085
0.819064
0.79895
0.777568
0.754816
0.730467
0.704522
0.676641
0.64707
0.615072
0.992793
0.978469
0.963798
0.948684
0.933265
0.917564
0.901491
0.884927
0.867768
0.849911
0.831257
0.811682
0.791083
0.769311
0.746291
0.721835
0.695962
0.668396
0.639362
0.608233
0.992497
0.977603
0.962344
0.946613
0.930567
0.914245
0.897562
0.880401
0.862661
0.844249
0.825077
0.805039
0.784045
0.761973
0.738763
0.714266
0.688508
0.661268
0.632744
0.602417
0.992224
0.976803
0.961007
0.944714
0.928099
0.911216
0.893986
0.876294
0.858044
0.839152
0.819539
0.799115
0.777802
0.755501
0.732162
0.707671
0.682052
0.655139
0.627093
0.597497
0.991974
0.976075
0.959794
0.942995
0.92587
0.908487
0.890772
0.872614
0.85392
0.834615
0.814629
0.793885
0.772318
0.749843
0.726423
0.701968
0.676503
0.649903
0.622299
0.593365
0.99175
0.975421
0.958708
0.941463
0.923887
0.906063
0.887924
0.86936
0.850284
0.830628
0.810331
0.789325
0.767554
0.744951
0.721483
0.697085
0.671777
0.645471
0.618268
0.589924
0.991553
0.974845
0.957754
0.94012
0.922153
0.903948
0.885442
0.866531
0.847132
0.827181
0.806625
0.785406
0.763476
0.740779
0.717289
0.692958
0.667801
0.641763
0.614918
0.587092
0.991383
0.974347
0.956935
0.93897
0.920671
0.902142
0.883326
0.864123
0.844453
0.824259
0.803493
0.782104
0.760049
0.737286
0.71379
0.689528
0.664512
0.638713
0.612178
0.584799
0.99124
0.97393
0.956251
0.938015
0.919442
0.900643
0.881572
0.86213
0.842241
0.82185
0.800915
0.779393
0.757245
0.734435
0.710943
0.686748
0.661857
0.636261
0.60999
0.582984
0.991125
0.973594
0.955705
0.937255
0.918463
0.89945
0.880176
0.860546
0.840484
0.819941
0.798876
0.777252
0.755034
0.732194
0.708711
0.684576
0.65979
0.634362
0.608305
0.581599
0.991042
0.973351
0.955308
0.936696
0.917735
0.898559
0.879133
0.859364
0.839175
0.818519
0.79736
0.775663
0.753397
0.730537
0.707065
0.682978
0.658275
0.632978
0.607085
0.580607
0.991001
0.973224
0.955089
0.936353
0.917262
0.897969
0.878441
0.85858
0.838307
0.817578
0.796356
0.774612
0.752315
0.729443
0.70598
0.681927
0.657283
0.632077
0.606304
0.579989
0.990899
0.973148
0.955031
0.936223
0.917043
0.89768
0.878098
0.858191
0.837876
0.817109
0.795857
0.77409
0.751777
0.7289
0.705442
0.681407
0.656792
0.631635
0.60593
0.579726
0.646986
0.588852
0.532102
0.471107
0.407856
0.345961
0.286471
0.229606
0.175776
0.126564
0.640187
0.580065
0.522362
0.46572
0.407436
0.350023
0.294989
0.242458
0.193082
0.147804
0.628656
0.57128
0.514778
0.462155
0.408811
0.35548
0.30413
0.255253
0.209246
0.166493
0.616825
0.563513
0.509184
0.459452
0.410162
0.360508
0.312339
0.26649
0.223242
0.182879
0.606156
0.556574
0.504933
0.457614
0.411619
0.365246
0.319872
0.276571
0.23569
0.197368
0.596799
0.550412
0.501635
0.456523
0.413177
0.36963
0.326731
0.285618
0.246747
0.210186
0.588677
0.545038
0.499043
0.455997
0.414817
0.373652
0.332934
0.293723
0.25657
0.221538
0.581709
0.540443
0.497004
0.455874
0.416502
0.377328
0.33851
0.300966
0.265297
0.231596
0.575788
0.536572
0.495406
0.456018
0.418184
0.380671
0.343493
0.307413
0.273037
0.240501
0.570794
0.533346
0.494161
0.456325
0.419813
0.383692
0.34792
0.313122
0.279876
0.248362
0.566611
0.53068
0.493198
0.45672
0.421346
0.386394
0.351822
0.318142
0.285889
0.255271
0.563132
0.52849
0.492455
0.457145
0.422746
0.388779
0.355226
0.322515
0.291132
0.261305
0.560261
0.526702
0.491877
0.457556
0.423983
0.390846
0.358153
0.326273
0.295643
0.266516
0.557915
0.525246
0.491416
0.457917
0.425036
0.392591
0.360622
0.329452
0.299461
0.2709
0.556022
0.524064
0.491032
0.458199
0.425886
0.394012
0.362648
0.332082
0.302663
0.274647
0.554524
0.523107
0.490692
0.458379
0.426516
0.395104
0.364239
0.334181
0.305247
0.27768
0.553371
0.522335
0.490368
0.45844
0.426918
0.395867
0.365401
0.335759
0.30723
0.280043
0.552521
0.521709
0.490033
0.458362
0.427081
0.3963
0.366144
0.336834
0.308635
0.28176
0.551956
0.521204
0.489641
0.458086
0.426944
0.39635
0.366429
0.337383
0.309456
0.28285
0.551725
0.520927
0.489303
0.45769
0.426543
0.396018
0.366228
0.337354
0.309616
0.283208
)
;

boundaryField
{
    bottom
    {
        type            symmetryPlane;
    }
    right
    {
        type            fixedValue;
        value           uniform 0;
    }
    top
    {
        type            symmetryPlane;
    }
    left
    {
        type            fixedValue;
        value           uniform 1;
    }
    cylinder
    {
        type            zeroGradient;
    }
    defaultFaces
    {
        type            empty;
    }
}


// ************************************************************************* //
