/*--------------------------------*- C++ -*----------------------------------*\
| =========                 |                                                 |
| \\      /  F ield         | OpenFOAM: The Open Source CFD Toolbox           |
|  \\    /   O peration     | Version:  4.1                                   |
|   \\  /    A nd           | Web:      www.OpenFOAM.org                      |
|    \\/     M anipulation  |                                                 |
\*---------------------------------------------------------------------------*/
FoamFile
{
    version     2.0;
    format      ascii;
    class       volVectorField;
    location    "5.1";
    object      U;
}
// * * * * * * * * * * * * * * * * * * * * * * * * * * * * * * * * * * * * * //

dimensions      [0 1 -1 0 0 0 0];

internalField   nonuniform List<vector> 
2000
(
(-0.0168076 0.0180969 3.62378e-20)
(0.0476824 -0.00119417 0)
(0.194713 -0.0357079 5.67169e-20)
(0.396518 -0.075129 2.50555e-20)
(0.622708 -0.111191 -4.6471e-20)
(0.842234 -0.140051 -6.00241e-20)
(1.03243 -0.160801 1.93454e-20)
(1.18106 -0.17637 0)
(1.29147 -0.181495 -1.29011e-20)
(1.35012 -0.199131 0)
(-0.0051644 0.00862611 -1.79375e-20)
(0.101763 -0.0249288 1.56692e-20)
(0.303487 -0.0629369 -6.08894e-20)
(0.5551 -0.0974452 -8.03059e-20)
(0.81005 -0.12321 -6.73381e-22)
(1.03209 -0.13986 1.9617e-20)
(1.20343 -0.149434 -1.82786e-20)
(1.32219 -0.154837 -1.46941e-20)
(1.3962 -0.154867 1.2901e-20)
(1.42897 -0.163766 1.86945e-20)
(0.0132737 -0.00176157 1.96031e-20)
(0.175136 -0.0471707 -1.83615e-20)
(0.437414 -0.0826316 3.06749e-20)
(0.730561 -0.106325 -1.22387e-21)
(0.994967 -0.118908 2.38578e-20)
(1.19902 -0.123895 2.06354e-20)
(1.33751 -0.124927 1.75577e-20)
(1.42009 -0.1248 1.46943e-20)
(1.46198 -0.123005 1.10886e-20)
(1.47696 -0.128759 -8.77223e-21)
(0.0400124 -0.0123203 -6.36248e-22)
(0.268719 -0.0646691 -1.97031e-20)
(0.590481 -0.0903536 0)
(0.908262 -0.099178 2.65955e-20)
(1.16088 -0.0989617 -2.58844e-20)
(1.33208 -0.0954024 0)
(1.43249 -0.0918678 0)
(1.48189 -0.089726 0)
(1.49963 -0.088056 -1.10891e-20)
(1.4971 -0.0927296 1.57447e-20)
(0.0761036 -0.0217717 4.66289e-20)
(0.380803 -0.073449 -1.00195e-22)
(0.752324 -0.0828095 1.80684e-20)
(1.0736 -0.0760289 1.43612e-20)
(1.29755 -0.0661382 1.22901e-20)
(1.42941 -0.0582093 9.73748e-21)
(1.49405 -0.0537117 0)
(1.51707 -0.0522196 5.75382e-21)
(1.51757 -0.0526288 -2.08713e-20)
(1.50767 -0.0575387 2.64354e-20)
(0.121997 -0.0283691 -7.29881e-20)
(0.506528 -0.069609 1.47784e-21)
(0.910782 -0.0588113 -3.55211e-20)
(1.21609 -0.0388892 3.13813e-20)
(1.40191 -0.0237298 -3.4652e-20)
(1.49497 -0.015353 1.12563e-20)
(1.52988 -0.0125976 0)
(1.53385 -0.0135104 -5.75418e-21)
(1.52404 -0.0165292 4.27622e-21)
(1.50897 -0.0219945 8.04259e-21)
(0.177113 -0.030047 0)
(0.638211 -0.0504403 0)
(1.05519 -0.0192593 -1.77219e-20)
(1.33059 0.00936952 1.64982e-20)
(1.47566 0.0253514 -1.05953e-20)
(1.53455 0.0310322 9.94761e-21)
(1.54676 0.030181 1.12137e-20)
(1.53808 0.0258479 -1.05996e-20)
(1.52222 0.0198043 -4.9118e-21)
(1.50525 0.0131309 2.41867e-21)
(0.23961 -0.0247772 1.38368e-20)
(0.766848 -0.0151919 0)
(1.17829 0.0335552 -8.08663e-21)
(1.41613 0.0657987 2.97105e-20)
(1.52252 0.0787579 -1.76895e-20)
(1.55357 0.0794735 0)
(1.54963 0.0738747 0)
(1.53315 0.0655596 0)
(1.51434 0.056441 -2.74819e-21)
(1.49653 0.0482107 2.61224e-21)
(0.306403 -0.0109576 -7.16552e-21)
(0.884064 0.0348897 -3.53715e-22)
(1.27613 0.0966424 -9.50524e-21)
(1.47407 0.127711 3.33211e-21)
(1.54651 0.134626 3.26222e-21)
(1.5563 0.128875 3.97796e-21)
(1.54164 0.117876 0)
(1.52091 0.105303 -3.58524e-22)
(1.50098 0.0930432 -1.15107e-22)
(1.4833 0.0826636 1.12268e-22)
(0.373509 0.0122416 0)
(0.983554 0.097161 -5.89475e-21)
(1.34729 0.166811 0)
(1.50677 0.19272 -1.98091e-21)
(1.5512 0.191411 -1.82315e-21)
(1.54571 0.1783 -1.6136e-21)
(1.5246 0.161571 0)
(1.50209 0.144599 3.5855e-22)
(1.48237 0.129167 -3.01442e-24)
(1.46548 0.116253 -5.71291e-22)
(-0.00919818 0.00836308 0)
(-0.034432 0.0143061 -2.69567e-21)
(-0.0673106 0.0151038 0)
(-0.0956218 0.0134775 -3.47733e-21)
(-0.116879 0.0104996 -1.08235e-21)
(-0.130618 0.00666718 1.93115e-21)
(-0.136705 0.00230722 -1.81864e-21)
(-0.13538 -0.00224783 1.63246e-21)
(-0.127401 -0.00652852 7.13754e-23)
(-0.114495 -0.00998224 1.31669e-21)
(-0.010628 0.0240085 -8.57375e-21)
(-0.0348309 0.0412308 5.34126e-21)
(-0.0641021 0.0436281 -5.10029e-21)
(-0.0878578 0.0388762 2.31589e-21)
(-0.104039 0.030102 1.08386e-20)
(-0.112297 0.018774 -4.02909e-21)
(-0.112579 0.00584231 0)
(-0.105103 -0.00772792 -1.62698e-21)
(-0.0904244 -0.0207753 -1.45291e-21)
(-0.0700482 -0.0314011 0)
(-0.0132125 0.0366188 5.7279e-21)
(-0.0355609 0.0633666 0)
(-0.0581159 0.0672248 1.54451e-20)
(-0.0732616 0.059623 -1.92287e-20)
(-0.0796887 0.0454711 4.57321e-21)
(-0.0772905 0.027124 0)
(-0.066188 0.00601454 0)
(-0.0470193 -0.0165441 0)
(-0.0201433 -0.0385618 1.1946e-20)
(0.0147172 -0.0562161 -1.13536e-20)
(-0.0164432 0.0449433 0)
(-0.0364255 0.078412 -1.15665e-20)
(-0.049986 0.0831636 2.14389e-20)
(-0.0532281 0.0728748 -9.98385e-21)
(-0.0458632 0.0538214 9.23577e-21)
(-0.0282243 0.0291136 -2.57254e-20)
(-0.000841076 0.000543706 4.45091e-22)
(0.0353702 -0.030336 1.47669e-20)
(0.0799751 -0.0609356 1.26105e-20)
(0.134861 -0.085701 -1.79012e-20)
(-0.0197782 0.0487057 1.2512e-20)
(-0.0370213 0.0852195 -2.43078e-20)
(-0.0400315 0.0896478 -2.16175e-22)
(-0.02873 0.0764097 1.62676e-22)
(-0.00402161 0.0526874 9.3866e-21)
(0.0331423 0.0222684 -2.71015e-20)
(0.0817009 -0.0126033 0)
(0.140011 -0.0501197 -7.71831e-21)
(0.206034 -0.0880104 6.98805e-21)
(0.287333 -0.119395 -2.41786e-20)
(-0.0227706 0.048464 -2.8532e-22)
(-0.0366003 0.0838714 2.48587e-20)
(-0.0276127 0.0860295 1.13406e-20)
(0.0008188 0.069003 1.11928e-20)
(0.0465941 0.0404838 9.78754e-21)
(0.107868 0.00486135 9.09892e-21)
(0.182547 -0.0350497 0)
(0.267885 -0.076939 7.71764e-21)
(0.357518 -0.119459 2.04159e-20)
(0.469683 -0.154447 -7.27912e-21)
(-0.025075 0.0452575 8.90638e-23)
(-0.0339139 0.0754065 1.31362e-20)
(-0.0105896 0.0728686 0)
(0.0386207 0.0508339 -2.12852e-20)
(0.110275 0.0172735 2.05159e-20)
(0.201002 -0.022914 0)
(0.30653 -0.0662645 0)
(0.422247 -0.109517 0)
(0.535264 -0.152824 -1.46437e-20)
(0.67636 -0.186102 -2.52271e-20)
(-0.0263463 0.0401354 -1.46603e-20)
(-0.0270432 0.0613247 1.37325e-20)
(0.0148738 0.0517429 2.52226e-20)
(0.0905196 0.0236685 7.00796e-22)
(0.194398 -0.0147087 2.12169e-20)
(0.320044 -0.0579387 1.95392e-20)
(0.45919 -0.101973 1.79106e-20)
(0.603707 -0.142942 1.6257e-20)
(0.736045 -0.182394 1.46422e-20)
(0.892528 -0.208018 -1.27784e-20)
(-0.0260422 0.0337949 -4.74038e-20)
(-0.0133466 0.0431044 -1.36776e-20)
(0.0539904 0.0248684 -5.09225e-20)
(0.163826 -0.00935142 -2.32621e-20)
(0.30662 -0.0509901 5.97247e-22)
(0.470054 -0.0941162 -1.90531e-20)
(0.640037 -0.134531 1.84262e-20)
(0.803567 -0.169534 -1.62555e-20)
(0.945701 -0.200113 1.43262e-20)
(1.09307 -0.215239 -2.50974e-20)
(-0.0232764 0.0264711 3.20352e-20)
(0.0104029 0.0219258 0)
(0.112359 -0.00524854 2.62656e-20)
(0.264945 -0.0439834 -1.18698e-22)
(0.450703 -0.0853593 6.29344e-22)
(0.648332 -0.123733 1.93673e-20)
(0.837722 -0.155799 -5.5035e-20)
(1.00301 -0.181934 0)
(1.13886 -0.199482 -1.43253e-20)
(1.25044 -0.209043 0)
(-0.0995765 -0.0121644 0)
(-0.0828541 -0.0148575 -9.64317e-22)
(-0.062683 -0.0176251 1.80983e-21)
(-0.0389364 -0.0202747 -7.44812e-22)
(-0.0119638 -0.022523 0)
(0.0178942 -0.0245 4.47237e-22)
(0.0503017 -0.026209 -4.49455e-22)
(0.0849031 -0.0276225 0)
(0.121376 -0.0287412 0)
(0.159372 -0.0295762 6.00224e-24)
(0.198552 -0.0301459 0)
(0.238595 -0.0304753 0)
(0.27921 -0.0305952 0)
(0.320141 -0.0305415 0)
(0.361169 -0.0303543 6.79627e-23)
(0.402181 -0.0300794 -6.8315e-23)
(0.442788 -0.0297634 0)
(0.48432 -0.0294683 2.4051e-23)
(0.520937 -0.0292749 -2.41776e-23)
(0.576397 -0.0292212 0)
(-0.0502938 -0.0375854 0)
(-0.0322971 -0.0454939 2.78068e-22)
(-0.011104 -0.0535248 0)
(0.0137085 -0.0609177 2.90966e-21)
(0.0415139 -0.0675205 -2.84206e-21)
(0.0715805 -0.0733257 1.47111e-22)
(0.103846 -0.0782839 -7.09942e-22)
(0.138018 -0.0823574 1.25737e-21)
(0.173767 -0.0855533 -6.49944e-22)
(0.210765 -0.0879054 2.53444e-22)
(0.248695 -0.0894699 -1.43395e-22)
(0.28726 -0.0903227 4.08674e-22)
(0.326193 -0.0905568 -2.87778e-22)
(0.36526 -0.0902793 -2.82802e-22)
(0.404254 -0.0896095 2.34105e-22)
(0.443108 -0.0886777 -5.89846e-23)
(0.481348 -0.0876319 -5.61362e-23)
(0.520545 -0.0866015 -8.88851e-23)
(0.554421 -0.0859302 8.9316e-23)
(0.606386 -0.0854352 -1.98916e-23)
(0.0427363 -0.0662204 -3.29192e-22)
(0.0633167 -0.0782889 -2.78548e-22)
(0.0868702 -0.0907249 -2.69279e-22)
(0.11336 -0.102225 0)
(0.141983 -0.112622 -3.14836e-21)
(0.172349 -0.121679 2.46228e-21)
(0.204255 -0.129332 0)
(0.237452 -0.135554 -1.79816e-22)
(0.271662 -0.14035 -5.05038e-23)
(0.306606 -0.143773 2.19685e-22)
(0.342014 -0.145918 -3.64863e-22)
(0.37764 -0.146909 1.12019e-22)
(0.413262 -0.146904 2.48901e-23)
(0.448699 -0.146077 4.94893e-23)
(0.48377 -0.144628 4.54108e-23)
(0.518493 -0.142749 -1.529e-22)
(0.552278 -0.140714 1.21822e-22)
(0.586994 -0.1386 1.93819e-22)
(0.616066 -0.13717 5.40037e-23)
(0.661378 -0.13558 1.09238e-23)
(0.171707 -0.0985779 -1.01537e-20)
(0.196773 -0.113605 9.93818e-22)
(0.222208 -0.129431 1.36397e-21)
(0.250295 -0.144236 8.48567e-21)
(0.279798 -0.157381 6.50781e-22)
(0.31007 -0.168721 1.66754e-22)
(0.340942 -0.178204 -3.70657e-21)
(0.372273 -0.185784 2.6432e-21)
(0.403869 -0.191461 1.48496e-21)
(0.435516 -0.195298 -6.30131e-22)
(0.46702 -0.197424 3.81349e-22)
(0.498207 -0.198013 1.84756e-22)
(0.528932 -0.197284 -2.46827e-23)
(0.559091 -0.195472 -3.23439e-22)
(0.588554 -0.192862 2.32738e-22)
(0.617441 -0.189673 3.35711e-22)
(0.645102 -0.186346 -3.10195e-22)
(0.67356 -0.182764 0)
(0.69651 -0.180255 -7.40267e-23)
(0.732814 -0.176938 -1.58052e-23)
(0.330619 -0.133389 2.36507e-20)
(0.359906 -0.150646 -9.63519e-21)
(0.386643 -0.168723 1.03515e-20)
(0.415239 -0.185436 0)
(0.444542 -0.200109 -4.48951e-22)
(0.473566 -0.212627 -5.80951e-21)
(0.502119 -0.222931 8.36709e-22)
(0.530186 -0.230951 1.09078e-21)
(0.557686 -0.236679 3.59848e-21)
(0.584495 -0.240193 1.13185e-22)
(0.610513 -0.241653 0)
(0.635669 -0.241278 -1.65947e-23)
(0.659925 -0.23935 0)
(0.683274 -0.236151 4.60164e-23)
(0.705681 -0.232064 0)
(0.727336 -0.227281 0)
(0.747695 -0.222461 -7.16459e-23)
(0.768558 -0.217155 9.37228e-23)
(0.784826 -0.213417 -7.8893e-23)
(0.810673 -0.207929 2.91108e-23)
(0.514573 -0.168086 0)
(0.5456 -0.186436 -7.0332e-22)
(0.571881 -0.205658 -1.97476e-20)
(0.598851 -0.223036 1.91534e-20)
(0.625788 -0.238035 -5.22162e-22)
(0.651522 -0.250666 0)
(0.675796 -0.260832 -5.25576e-21)
(0.698681 -0.268423 9.10115e-21)
(0.720209 -0.273428 -4.39244e-21)
(0.74037 -0.275949 -1.78605e-22)
(0.759189 -0.276188 -1.23835e-22)
(0.776713 -0.274406 -7.66925e-23)
(0.793052 -0.270954 0)
(0.808291 -0.266142 -1.26116e-22)
(0.822563 -0.260458 3.84395e-22)
(0.836021 -0.254014 -2.5126e-22)
(0.848489 -0.247727 3.34736e-23)
(0.861015 -0.24071 3.19118e-23)
(0.870685 -0.23583 -2.06692e-23)
(0.885635 -0.228146 2.02084e-23)
(0.71641 -0.198383 2.54345e-20)
(0.744503 -0.216792 0)
(0.767371 -0.236034 -6.79464e-22)
(0.789915 -0.252974 1.20387e-21)
(0.811672 -0.26738 1.0617e-21)
(0.831533 -0.279347 4.68126e-22)
(0.849204 -0.288681 3.96759e-22)
(0.864771 -0.29522 -4.26668e-21)
(0.878362 -0.298975 5.06177e-21)
(0.890101 -0.300093 2.98998e-21)
(0.90018 -0.298828 -2.48494e-21)
(0.908787 -0.29549 1.74448e-22)
(0.916207 -0.290498 -2.73885e-22)
(0.922593 -0.284165 2.19121e-22)
(0.928303 -0.277083 5.25579e-23)
(0.933306 -0.269238 -9.88896e-24)
(0.938026 -0.261801 4.79971e-23)
(0.9423 -0.253414 -4.31246e-23)
(0.946028 -0.247719 -1.01544e-22)
(0.950753 -0.238263 -5.95864e-24)
(0.921903 -0.219364 0)
(0.942341 -0.237215 -2.30628e-20)
(0.958738 -0.255356 2.36435e-20)
(0.974238 -0.271174 -6.11531e-22)
(0.988207 -0.284642 -1.08173e-21)
(0.999791 -0.295606 -4.67688e-22)
(1.00875 -0.303761 -7.99504e-22)
(1.01515 -0.308997 0)
(1.01925 -0.311398 -2.58946e-22)
(1.02137 -0.311154 -1.98151e-22)
(1.02189 -0.30857 -1.61127e-22)
(1.02114 -0.303984 -2.12383e-22)
(1.01959 -0.297866 0)
(1.01737 -0.290503 0)
(1.01509 -0.282553 -5.23825e-24)
(1.01237 -0.273858 5.72332e-23)
(1.01035 -0.2658 -3.43029e-23)
(1.00739 -0.256592 9.39892e-24)
(1.00633 -0.250518 3.90474e-23)
(1.0025 -0.239951 -9.23575e-24)
(1.11004 -0.228142 2.61486e-20)
(1.12166 -0.245588 0)
(1.13018 -0.262301 0)
(1.13677 -0.277172 -1.8466e-20)
(1.14109 -0.28978 2.61124e-21)
(1.14272 -0.299617 3.02275e-20)
(1.14154 -0.306512 -1.35758e-20)
(1.13776 -0.310533 0)
(1.13189 -0.31184 0)
(1.12446 -0.310645 0)
(1.11602 -0.307276 7.49602e-23)
(1.10693 -0.302058 1.75189e-22)
(1.09776 -0.295464 1.07676e-21)
(1.0885 -0.287714 -1.04147e-21)
(1.07994 -0.279505 1.5358e-22)
(1.07121 -0.270534 -1.48134e-22)
(1.06418 -0.262347 0)
(1.05569 -0.252808 -8.06375e-24)
(1.05126 -0.246691 -8.54361e-24)
(1.04101 -0.23556 0)
(1.26426 -0.227317 -3.9608e-22)
(1.27049 -0.242959 -2.22517e-20)
(1.27024 -0.257405 2.20198e-20)
(1.26577 -0.27069 0)
(1.25873 -0.281727 1.56852e-20)
(1.2495 -0.290089 -2.91385e-20)
(1.23816 -0.295862 1.34755e-20)
(1.22507 -0.299169 0)
(1.21083 -0.300127 3.91449e-21)
(1.19597 -0.298889 -6.96044e-21)
(1.18103 -0.295725 3.13717e-21)
(1.1662 -0.29088 -6.08901e-23)
(1.15199 -0.284777 0)
(1.13814 -0.277548 -7.82336e-22)
(1.12557 -0.269891 9.63322e-22)
(1.11292 -0.261378 -2.13417e-22)
(1.1027 -0.253649 -2.96481e-23)
(1.09041 -0.244337 3.121e-23)
(1.08386 -0.238488 -2.82649e-24)
(1.06907 -0.227239 0)
(1.39382 -0.202611 0)
(1.38417 -0.215954 0)
(1.36746 -0.22756 0)
(1.34896 -0.238924 0)
(1.33096 -0.249379 0)
(1.31327 -0.258125 0)
(1.29531 -0.264823 0)
(1.27691 -0.269442 0)
(1.25835 -0.272079 0)
(1.23989 -0.272818 0)
(1.22188 -0.27183 0)
(1.2043 -0.269221 0)
(1.18761 -0.265332 0)
(1.17136 -0.260177 0)
(1.15659 -0.254418 0)
(1.14162 -0.247536 0)
(1.12947 -0.241163 0)
(1.11478 -0.232918 0)
(1.10681 -0.22775 0)
(1.08904 -0.217048 0)
(1.42492 -0.183962 0)
(1.41592 -0.199007 0)
(1.39766 -0.212113 0)
(1.37696 -0.223932 0)
(1.35721 -0.234267 0)
(1.33828 -0.242708 0)
(1.31934 -0.249069 0)
(1.30008 -0.253383 0)
(1.28074 -0.255794 0)
(1.26158 -0.256433 0)
(1.24295 -0.255495 0)
(1.22476 -0.253098 0)
(1.20748 -0.249565 0)
(1.19058 -0.244902 0)
(1.17517 -0.239717 0)
(1.15942 -0.233499 0)
(1.14659 -0.227759 0)
(1.1309 -0.220247 0)
(1.12237 -0.215571 0)
(1.10311 -0.205666 0)
(1.43714 -0.165169 0)
(1.42801 -0.180708 0)
(1.40979 -0.194189 0)
(1.38899 -0.205639 0)
(1.36912 -0.215266 0)
(1.35022 -0.223112 0)
(1.33139 -0.229151 0)
(1.31226 -0.233404 0)
(1.29305 -0.235972 0)
(1.274 -0.236961 0)
(1.25546 -0.236544 0)
(1.23733 -0.234815 0)
(1.22006 -0.232052 0)
(1.20308 -0.228232 0)
(1.18756 -0.223903 0)
(1.17157 -0.218567 0)
(1.15852 -0.213623 0)
(1.14238 -0.206955 0)
(1.13361 -0.202844 0)
(1.11365 -0.193773 0)
(1.43628 -0.147761 0)
(1.42769 -0.163065 0)
(1.41066 -0.17637 0)
(1.39092 -0.187447 0)
(1.37185 -0.196623 0)
(1.35364 -0.204141 0)
(1.33553 -0.210057 0)
(1.31713 -0.214372 0)
(1.29863 -0.217148 0)
(1.28023 -0.218469 0)
(1.26228 -0.218497 0)
(1.24466 -0.217313 0)
(1.22782 -0.21517 0)
(1.21117 -0.212033 0)
(1.19589 -0.208403 0)
(1.18002 -0.203801 0)
(1.16704 -0.199521 0)
(1.15082 -0.193582 0)
(1.14202 -0.189945 0)
(1.12181 -0.181636 0)
(1.42865 -0.132465 0)
(1.42093 -0.147003 0)
(1.4055 -0.159764 0)
(1.38733 -0.170382 0)
(1.3695 -0.17914 0)
(1.35235 -0.186332 0)
(1.33526 -0.192064 0)
(1.31788 -0.196345 0)
(1.30036 -0.199221 0)
(1.28287 -0.200767 0)
(1.26573 -0.201129 0)
(1.24883 -0.200381 0)
(1.23261 -0.19875 0)
(1.21647 -0.196191 0)
(1.20162 -0.193161 0)
(1.18605 -0.189202 0)
(1.17332 -0.185505 0)
(1.15723 -0.180223 0)
(1.14854 -0.177012 0)
(1.12836 -0.16943 0)
(1.41895 -0.119052 0)
(1.41193 -0.132546 0)
(1.39806 -0.144544 0)
(1.38151 -0.154583 0)
(1.36503 -0.16287 0)
(1.34901 -0.169689 0)
(1.333 -0.175173 0)
(1.31668 -0.179345 0)
(1.30018 -0.182248 0)
(1.28363 -0.183942 0)
(1.26735 -0.184557 0)
(1.25122 -0.184157 0)
(1.23568 -0.182944 0)
(1.22012 -0.180868 0)
(1.20575 -0.178344 0)
(1.19058 -0.174937 0)
(1.17816 -0.171742 0)
(1.16232 -0.167045 0)
(1.15379 -0.164211 0)
(1.1338 -0.157309 0)
(1.40949 -0.107167 0)
(1.40291 -0.119517 0)
(1.39037 -0.130627 0)
(1.3753 -0.139994 0)
(1.36009 -0.147755 0)
(1.34514 -0.154162 0)
(1.33012 -0.159354 0)
(1.31478 -0.163363 0)
(1.29922 -0.16623 0)
(1.28356 -0.168001 0)
(1.26809 -0.168792 0)
(1.25269 -0.168654 0)
(1.2378 -0.167772 0)
(1.22281 -0.166091 0)
(1.20893 -0.163986 0)
(1.19418 -0.161051 0)
(1.1821 -0.158285 0)
(1.16655 -0.15411 0)
(1.15821 -0.151607 0)
(1.1385 -0.145339 0)
(1.40114 -0.0965092 0)
(1.39478 -0.10769 0)
(1.38331 -0.117846 0)
(1.36952 -0.126479 0)
(1.35542 -0.133671 0)
(1.34142 -0.139635 0)
(1.32727 -0.144499 0)
(1.31279 -0.148301 0)
(1.29806 -0.151075 0)
(1.28319 -0.152861 0)
(1.26845 -0.153761 0)
(1.2537 -0.153815 0)
(1.23941 -0.153189 0)
(1.22494 -0.151829 0)
(1.21153 -0.150072 0)
(1.19718 -0.14754 0)
(1.18543 -0.145145 0)
(1.1702 -0.141436 0)
(1.16205 -0.139227 0)
(1.14265 -0.133552 0)
(1.39406 -0.0867899 0)
(1.38778 -0.0968168 0)
(1.37716 -0.106001 0)
(1.36443 -0.113872 0)
(1.35128 -0.120469 0)
(1.33809 -0.125965 0)
(1.3247 -0.130475 0)
(1.31094 -0.134033 0)
(1.29694 -0.136672 0)
(1.28275 -0.138424 0)
(1.26865 -0.139378 0)
(1.25449 -0.139567 0)
(1.24072 -0.139139 0)
(1.22674 -0.138038 0)
(1.21374 -0.136572 0)
(1.19977 -0.134388 0)
(1.18833 -0.132315 0)
(1.1734 -0.129027 0)
(1.16544 -0.127079 0)
(1.14637 -0.121963 0)
(1.38816 -0.0777696 0)
(1.38185 -0.0866905 0)
(1.37189 -0.0949193 0)
(1.36004 -0.102022 0)
(1.3477 -0.10801 0)
(1.33519 -0.113024 0)
(1.32243 -0.117159 0)
(1.30931 -0.120448 0)
(1.29592 -0.122918 0)
(1.28233 -0.124598 0)
(1.26878 -0.125562 0)
(1.25513 -0.125841 0)
(1.24184 -0.125562 0)
(1.22828 -0.124674 0)
(1.21567 -0.12345 0)
(1.20204 -0.121569 0)
(1.19088 -0.119776 0)
(1.17625 -0.116871 0)
(1.16847 -0.11516 0)
(1.14972 -0.110572 0)
(1.38326 -0.0692828 0)
(1.37685 -0.0771557 0)
(1.3674 -0.0844585 0)
(1.35628 -0.0908009 0)
(1.3446 -0.0961769 0)
(1.33269 -0.100699 0)
(1.32047 -0.104446 0)
(1.30788 -0.107446 0)
(1.29502 -0.109723 0)
(1.28195 -0.1113 0)
(1.26888 -0.112242 0)
(1.25568 -0.112573 0)
(1.24279 -0.112405 0)
(1.22962 -0.11169 0)
(1.21734 -0.11067 0)
(1.20403 -0.109054 0)
(1.19313 -0.10751 0)
(1.17878 -0.104957 0)
(1.17116 -0.10346 0)
(1.15272 -0.0993766 0)
(1.37917 -0.0612092 0)
(1.37264 -0.0680901 0)
(1.36358 -0.0745019 0)
(1.35306 -0.0800994 0)
(1.34195 -0.0848667 0)
(1.33052 -0.0888936 0)
(1.31876 -0.0922453 0)
(1.30663 -0.0949434 0)
(1.29423 -0.0970086 0)
(1.28159 -0.0984598 0)
(1.26894 -0.0993533 0)
(1.25613 -0.0997068 0)
(1.24361 -0.0996197 0)
(1.23077 -0.0990455 0)
(1.21879 -0.0981985 0)
(1.20577 -0.0968179 0)
(1.19511 -0.095494 0)
(1.18101 -0.0932681 0)
(1.17354 -0.091968 0)
(1.1554 -0.0883662 0)
(1.37578 -0.0534525 0)
(1.3691 -0.0593942 0)
(1.36036 -0.0649517 0)
(1.35032 -0.0698246 0)
(1.33968 -0.0739919 0)
(1.32866 -0.0775251 0)
(1.31729 -0.0804771 0)
(1.30554 -0.0828647 0)
(1.29353 -0.0847049 0)
(1.28127 -0.0860131 0)
(1.26897 -0.086837 0)
(1.2565 -0.0871905 0)
(1.24429 -0.0871591 0)
(1.23175 -0.0867006 0)
(1.22004 -0.0860014 0)
(1.20727 -0.0848313 0)
(1.19682 -0.0837063 0)
(1.18296 -0.0817854 0)
(1.17563 -0.0806675 0)
(1.15776 -0.0775293 0)
(1.37299 -0.0459367 0)
(1.36616 -0.0509883 0)
(1.35766 -0.0557278 0)
(1.34802 -0.0598982 0)
(1.33776 -0.063477 0)
(1.32708 -0.0665209 0)
(1.31603 -0.0690723 0)
(1.30461 -0.0711441 0)
(1.29292 -0.0727501 0)
(1.28097 -0.0739022 0)
(1.26898 -0.0746406 0)
(1.2568 -0.074976 0)
(1.24486 -0.0749808 0)
(1.23257 -0.0746176 0)
(1.22109 -0.074046 0)
(1.20855 -0.0730665 0)
(1.19828 -0.0721224 0)
(1.18463 -0.0704891 0)
(1.17742 -0.0695414 0)
(1.1598 -0.0668511 0)
(1.37071 -0.0386035 0)
(1.36374 -0.0428087 0)
(1.35542 -0.0467634 0)
(1.3461 -0.050253 0)
(1.33615 -0.0532558 0)
(1.32575 -0.0558165 0)
(1.31496 -0.0579687 0)
(1.30381 -0.059722 0)
(1.29238 -0.0610872 0)
(1.2807 -0.0620739 0)
(1.26897 -0.0627147 0)
(1.25703 -0.063018 0)
(1.24532 -0.0630438 0)
(1.23324 -0.0627599 0)
(1.22197 -0.0622998 0)
(1.20961 -0.0614949 0)
(1.19951 -0.0607175 0)
(1.18604 -0.0593575 0)
(1.17893 -0.0585703 0)
(1.16153 -0.0563147 0)
(1.36889 -0.0314066 0)
(1.36179 -0.034803 0)
(1.35361 -0.0380021 0)
(1.34454 -0.0408307 0)
(1.33484 -0.0432697 0)
(1.32466 -0.045354 0)
(1.31408 -0.0471096 0)
(1.30314 -0.0485436 0)
(1.29194 -0.0496641 0)
(1.28047 -0.0504785 0)
(1.26894 -0.0510129 0)
(1.2572 -0.0512735 0)
(1.24568 -0.0513086 0)
(1.23378 -0.0510916 0)
(1.22267 -0.0507304 0)
(1.21048 -0.0500877 0)
(1.20051 -0.0494654 0)
(1.18719 -0.0483674 0)
(1.18017 -0.0477329 0)
(1.16296 -0.0459016 0)
(1.36747 -0.024313 0)
(1.36026 -0.0269307 0)
(1.35219 -0.0293977 0)
(1.34331 -0.0315815 0)
(1.3338 -0.0334675 0)
(1.32379 -0.0350818 0)
(1.31338 -0.0364438 0)
(1.3026 -0.0375586 0)
(1.29157 -0.0384321 0)
(1.28027 -0.0390698 0)
(1.26891 -0.0394913 0)
(1.25732 -0.0397015 0)
(1.24595 -0.039737 0)
(1.2342 -0.0395777 0)
(1.22321 -0.0393056 0)
(1.21115 -0.0388157 0)
(1.20129 -0.0383396 0)
(1.1881 -0.0374951 0)
(1.18115 -0.0370069 0)
(1.16409 -0.0355916 0)
(1.36641 -0.0173067 0)
(1.35912 -0.0191677 0)
(1.35113 -0.0209191 0)
(1.34239 -0.0224691 0)
(1.33302 -0.0238087 0)
(1.32313 -0.0249569 0)
(1.31284 -0.0259272 0)
(1.30219 -0.0267229 0)
(1.29128 -0.0273475 0)
(1.28011 -0.0278051 0)
(1.26887 -0.0281089 0)
(1.2574 -0.0282632 0)
(1.24614 -0.0282924 0)
(1.23449 -0.0281841 0)
(1.22361 -0.0279934 0)
(1.21164 -0.0276502 0)
(1.20186 -0.0273122 0)
(1.18877 -0.0267167 0)
(1.18188 -0.0263677 0)
(1.16493 -0.0253645 0)
(1.36568 -0.0103254 0)
(1.35835 -0.0114562 0)
(1.35041 -0.0125123 0)
(1.34177 -0.0134426 0)
(1.33249 -0.0142449 0)
(1.32269 -0.0149325 0)
(1.31247 -0.015514 0)
(1.3019 -0.0159915 0)
(1.29108 -0.0163666 0)
(1.27999 -0.0166421 0)
(1.26883 -0.0168252 0)
(1.25745 -0.0169199 0)
(1.24626 -0.0169381 0)
(1.23469 -0.0168767 0)
(1.22386 -0.0167615 0)
(1.21197 -0.0165618 0)
(1.20224 -0.0163544 0)
(1.18921 -0.0160081 0)
(1.18235 -0.0157882 0)
(1.16549 -0.0152001 0)
(1.36526 -0.00332495 0)
(1.35793 -0.00374301 0)
(1.35003 -0.00412099 0)
(1.34145 -0.00444705 0)
(1.33222 -0.00472421 0)
(1.32246 -0.00495949 0)
(1.31229 -0.00515723 0)
(1.30176 -0.00531902 0)
(1.29098 -0.00544571 0)
(1.27994 -0.00553882 0)
(1.26881 -0.0056005 0)
(1.25747 -0.00563297 0)
(1.24631 -0.0056391 0)
(1.23478 -0.00561989 0)
(1.22399 -0.00558064 0)
(1.21213 -0.0055165 0)
(1.20242 -0.00544452 0)
(1.18944 -0.0053341 0)
(1.18258 -0.00525496 0)
(1.16577 -0.00506552 0)
(1.45078 0.102301 5.58175e-22)
(1.46755 0.0751699 0)
(1.48039 0.046676 1.88531e-23)
(1.48947 0.0169055 6.82137e-22)
(1.4946 -0.0138676 -8.77548e-21)
(1.49572 -0.04546 0)
(1.49329 -0.0778093 -1.46142e-20)
(1.47837 -0.1112 0)
(1.46994 -0.14334 -1.95342e-20)
(1.39506 -0.183145 2.91232e-22)
(1.43797 0.0898036 -9.5696e-22)
(1.45302 0.0660198 1.04141e-22)
(1.46515 0.0409828 -1.04345e-22)
(1.47273 0.0148991 -1.79559e-21)
(1.47933 -0.0122551 4.69256e-22)
(1.47806 -0.040363 1.43148e-22)
(1.48344 -0.0685183 0)
(1.46506 -0.100151 9.2412e-21)
(1.4775 -0.125188 0)
(1.42489 -0.166728 1.36921e-20)
(1.42837 0.078012 2.08636e-21)
(1.4409 0.0568156 0)
(1.45223 0.0346616 -9.0823e-23)
(1.45732 0.0113528 -1.52912e-21)
(1.46544 -0.0121775 -6.12551e-22)
(1.46108 -0.0378606 0)
(1.47094 -0.0608366 -3.13173e-21)
(1.45267 -0.091241 -9.39138e-21)
(1.46741 -0.109792 0)
(1.43755 -0.148997 -1.35527e-20)
(1.42113 0.0677918 -9.97224e-22)
(1.43139 0.0487516 3.85052e-21)
(1.44191 0.0294071 0)
(1.44487 0.00832355 2.72303e-21)
(1.45332 -0.0115683 6.94981e-23)
(1.4478 -0.0354163 -5.42436e-23)
(1.45736 -0.0538458 3.20875e-21)
(1.44337 -0.0824755 9.24185e-23)
(1.45222 -0.0975326 4.612e-21)
(1.43707 -0.132247 0)
(1.41552 0.05889 0)
(1.42411 0.0417578 -3.76404e-21)
(1.43356 0.0249992 -4.00331e-21)
(1.43543 0.00580051 4.29337e-22)
(1.44271 -0.011008 -2.50937e-22)
(1.43792 -0.0330331 -7.19171e-23)
(1.44417 -0.0484679 -2.29561e-21)
(1.43498 -0.0744441 7.18935e-23)
(1.43771 -0.0880919 -2.83502e-21)
(1.4296 -0.117919 -3.78244e-21)
(1.41107 0.0510638 1.52962e-21)
(1.41855 0.0356558 2.72617e-22)
(1.42664 0.0210716 -1.01548e-21)
(1.42827 0.00364916 2.14778e-22)
(1.43355 -0.0108939 -4.9896e-21)
(1.43017 -0.0308482 0)
(1.43278 -0.0445634 2.4372e-21)
(1.42679 -0.0673868 -7.78067e-23)
(1.42582 -0.0802519 -1.10683e-21)
(1.42017 -0.105732 4.93005e-21)
(1.40751 0.0441292 -1.53715e-21)
(1.41423 0.0303401 -2.76973e-21)
(1.42088 0.0175123 4.14529e-21)
(1.42262 0.00188737 -7.13829e-21)
(1.42593 -0.0110302 -1.42002e-21)
(1.42369 -0.0287236 -4.64664e-21)
(1.42376 -0.0413043 1.50108e-22)
(1.41922 -0.0610412 -2.36371e-22)
(1.41652 -0.0731285 -6.00094e-22)
(1.41121 -0.0950818 -1.17343e-21)
(1.40472 0.0379722 0)
(1.41081 0.0257259 6.09326e-21)
(1.41618 0.014338 -6.09008e-22)
(1.41796 0.000505526 3.61233e-21)
(1.41981 -0.0111369 -9.13936e-22)
(1.41812 -0.0266056 9.95154e-21)
(1.41679 -0.0382077 -4.12771e-21)
(1.41263 -0.0552718 0)
(1.40913 -0.066504 0)
(1.40347 -0.0856013 0)
(1.40257 0.0325184 0)
(1.40808 0.021725 -5.80068e-21)
(1.4124 0.0115744 -3.56832e-22)
(1.41405 -0.00055867 4.23033e-21)
(1.41494 -0.0110807 6.95754e-21)
(1.41333 -0.0245411 -5.93065e-21)
(1.41128 -0.035174 5.01051e-21)
(1.40703 -0.0500122 -2.6843e-22)
(1.4031 -0.0603221 0)
(1.39702 -0.0770133 2.41542e-21)
(1.40097 0.0277024 2.19065e-22)
(1.40589 0.0182517 3.34301e-21)
(1.40941 0.00921899 5.08648e-21)
(1.41078 -0.00136559 -2.31983e-22)
(1.41104 -0.0108294 5.54143e-22)
(1.40928 -0.0225401 -7.55825e-21)
(1.40681 -0.0321811 6.70067e-21)
(1.40236 -0.0451254 -3.17342e-22)
(1.39812 -0.0544684 0)
(1.39175 -0.0690698 -5.56367e-21)
(1.39978 0.0234592 0)
(1.40414 0.015234 3.4867e-21)
(1.40703 0.00724552 2.90352e-22)
(1.40806 -0.00194838 0)
(1.40788 -0.0103829 0)
(1.40589 -0.0205601 6.73122e-21)
(1.40313 -0.029194 -5.54966e-21)
(1.39851 -0.0404738 -3.02462e-22)
(1.394 -0.0488441 1.74955e-22)
(1.38745 -0.0615961 3.26283e-21)
(1.39893 0.0197307 0)
(1.40276 0.0126185 -6.70546e-21)
(1.40515 0.00562019 -6.91608e-21)
(1.40584 -0.00232015 1.00465e-21)
(1.40531 -0.00975003 -6.33572e-22)
(1.4031 -0.0185557 -4.73393e-22)
(1.40009 -0.0261901 8.70136e-22)
(1.39535 -0.0359744 5.40902e-21)
(1.39059 -0.043392 4.77596e-22)
(1.38393 -0.0544772 -1.39961e-22)
(1.39831 0.0164483 0)
(1.40168 0.0103552 3.63915e-21)
(1.40366 0.00430267 -3.84502e-22)
(1.40405 -0.00249388 3.81316e-22)
(1.40323 -0.00894819 0)
(1.40084 -0.0165037 0)
(1.39761 -0.0231619 0)
(1.39278 -0.0315788 -6.11889e-21)
(1.38777 -0.038069 5.68576e-21)
(1.38105 -0.0476243 0)
(1.39788 0.0135093 0)
(1.40085 0.00838494 2.37489e-21)
(1.40249 0.00324625 2.97578e-21)
(1.40262 -0.00248984 3.72901e-21)
(1.40155 -0.00799972 -6.94532e-22)
(1.39901 -0.0143963 4.11563e-21)
(1.39559 -0.0201059 -3.5243e-21)
(1.39069 -0.0272519 0)
(1.38547 -0.0328376 5.98749e-22)
(1.37872 -0.0409669 -5.38675e-21)
(1.39761 0.0108832 -5.48275e-22)
(1.40024 0.00667559 -1.93339e-21)
(1.40158 0.00241528 -3.84929e-21)
(1.4015 -0.00232688 -2.62689e-21)
(1.40023 -0.0069237 0)
(1.39757 -0.0122316 -5.21099e-21)
(1.39398 -0.0170189 5.08011e-21)
(1.38904 -0.0229675 -4.77847e-22)
(1.38362 -0.0276697 -2.8378e-21)
(1.37684 -0.0344523 7.93108e-21)
(1.39745 0.00854974 5.51093e-22)
(1.3998 0.00519369 -1.53551e-21)
(1.4009 0.00177357 1.3273e-21)
(1.40065 -0.00202761 -3.19634e-21)
(1.39921 -0.00573999 0)
(1.39645 -0.0100134 0)
(1.39273 -0.0139017 5.0768e-22)
(1.38774 -0.0187091 -4.74241e-21)
(1.38216 -0.0225458 -2.73953e-21)
(1.37537 -0.0280407 -2.73563e-21)
(1.39736 0.00643299 0)
(1.39949 0.00388741 2.50286e-21)
(1.4004 0.00127915 -8.86219e-22)
(1.40001 -0.00162115 2.8642e-21)
(1.39844 -0.0044734 7.55726e-22)
(1.39561 -0.00775416 -5.97126e-22)
(1.39178 -0.0107631 1.10639e-21)
(1.38676 -0.0144716 3.27793e-21)
(1.38104 -0.0174573 0)
(1.37423 -0.0217058 0)
(1.39733 0.0044933 0)
(1.39929 0.00272653 1.03474e-21)
(1.40006 0.000905015 -1.83789e-21)
(1.39956 -0.00112812 0)
(1.3979 -0.00314287 -1.4661e-21)
(1.39501 -0.00546544 -6.0955e-22)
(1.3911 -0.00761316 -1.67429e-21)
(1.38606 -0.010257 -4.66691e-22)
(1.38023 -0.012405 2.49385e-22)
(1.3734 -0.0154398 1.96843e-22)
(1.39731 0.00269587 0)
(1.39916 0.00168976 -1.03973e-21)
(1.39983 0.000646775 -9.14523e-22)
(1.39926 -0.000532954 1.23247e-21)
(1.39754 -0.00171726 6.90031e-22)
(1.39462 -0.00309927 6.52815e-22)
(1.39065 -0.0043937 2.80547e-21)
(1.3856 -0.00599685 -1.99942e-21)
(1.37968 -0.00731898 4.57716e-22)
(1.37282 -0.00917419 0)
(1.39729 0.000853587 0)
(1.39908 0.000620035 5.04562e-22)
(1.3997 0.000363538 -4.77608e-22)
(1.39911 4.2755e-05 4.44993e-22)
(1.39735 -0.000301446 0)
(1.39441 -0.000735141 -6.56111e-22)
(1.39042 -0.00116289 5.48341e-22)
(1.38534 -0.00171654 4.70266e-22)
(1.37937 -0.00219778 0)
(1.37247 -0.00287476 0)
(1.04084 0.293758 0)
(1.02227 0.323802 -4.36594e-20)
(1.00992 0.361086 0)
(1.00059 0.406868 -1.42803e-19)
(0.992 0.461284 5.57956e-20)
(0.983004 0.526014 2.30838e-21)
(0.970299 0.600675 4.12745e-20)
(0.934153 0.67085 -8.56658e-21)
(0.807985 0.67277 0)
(0.456709 0.409306 3.46217e-20)
(1.09225 0.294116 7.93355e-20)
(1.0786 0.329464 4.36578e-20)
(1.07339 0.365864 -3.96564e-20)
(1.07037 0.410697 4.80983e-20)
(1.0681 0.464638 -3.72839e-20)
(1.06654 0.528571 8.27318e-21)
(1.06175 0.601395 -4.42275e-20)
(1.03059 0.666895 -8.22151e-20)
(0.896801 0.660669 -2.15582e-20)
(0.503664 0.391761 -4.96013e-20)
(1.14448 0.289329 -3.36448e-20)
(1.13705 0.325386 3.42527e-20)
(1.13708 0.361046 3.96547e-20)
(1.13895 0.40524 3.98804e-20)
(1.14253 0.45842 3.96675e-20)
(1.14809 0.520756 3.86268e-20)
(1.1503 0.590301 9.60058e-21)
(1.12208 0.648828 3.15605e-20)
(0.977634 0.63304 7.11209e-21)
(0.541675 0.363477 -7.59215e-21)
(1.19822 0.280852 6.75148e-20)
(1.19578 0.315844 -3.42512e-20)
(1.19955 0.349985 0)
(1.2055 0.392549 0)
(1.21441 0.443747 0)
(1.22634 0.503217 2.33169e-20)
(1.23406 0.567933 -1.55959e-20)
(1.20594 0.617321 0)
(1.04716 0.591098 5.3845e-22)
(0.568026 0.326114 6.94873e-22)
(1.24996 0.268181 -1.07479e-20)
(1.25184 0.30112 4.28311e-20)
(1.25893 0.333342 0)
(1.2687 0.373514 0)
(1.28248 0.42158 9.33236e-21)
(1.29976 0.476865 7.28413e-21)
(1.31098 0.535413 1.30645e-20)
(1.27972 0.573643 -3.29835e-22)