/*--------------------------------*- C++ -*----------------------------------*\
| =========                 |                                                 |
| \\      /  F ield         | OpenFOAM: The Open Source CFD Toolbox           |
|  \\    /   O peration     | Version:  4.1                                   |
|   \\  /    A nd           | Web:      www.OpenFOAM.org                      |
|    \\/     M anipulation  |                                                 |
\*---------------------------------------------------------------------------*/
FoamFile
{
    version     2.0;
    format      ascii;
    class       volScalarField;
    location    "13.3";
    object      p;
}
// * * * * * * * * * * * * * * * * * * * * * * * * * * * * * * * * * * * * * //

dimensions      [0 2 -2 0 0 0 0];

internalField   nonuniform List<scalar> 
2000
(
-0.0370878
-0.0276993
-0.0190823
-0.0108276
-0.00310949
0.00413419
0.0112413
0.017466
0.0245272
0.0262951
-0.0543146
-0.0414303
-0.0305342
-0.0202977
-0.0105733
-0.00129355
0.00763145
0.0159315
0.0242071
0.0294562
-0.075041
-0.0581267
-0.0447173
-0.0320712
-0.019573
-0.00735392
0.00440652
0.0154698
0.025997
0.0351132
-0.0991795
-0.0777702
-0.0615043
-0.0455917
-0.0291127
-0.0128133
0.0026781
0.0170211
0.0304273
0.0418327
-0.125843
-0.0997259
-0.0799625
-0.0593709
-0.0374518
-0.0160237
0.0038137
0.021777
0.0379042
0.0518236
-0.153308
-0.122569
-0.0980786
-0.0710203
-0.0423679
-0.0151662
0.00926789
0.0308085
0.0496879
0.0660648
-0.178788
-0.143945
-0.112879
-0.0776576
-0.0415559
-0.00848834
0.0203877
0.0453058
0.0667937
0.0856086
-0.198741
-0.160517
-0.120994
-0.0765149
-0.0329734
0.00554235
0.0384137
0.0663341
0.0902721
0.111381
-0.209457
-0.168337
-0.119242
-0.0653411
-0.0150047
0.0281905
0.0643963
0.0948232
0.120885
0.143844
-0.207631
-0.163741
-0.104911
-0.042496
0.0134842
0.0603694
0.0991188
0.131452
0.15916
0.183299
0.0303613
0.0271222
0.0259067
0.025226
0.024756
0.0244902
0.0244069
0.0244627
0.0245698
0.0245376
0.0288935
0.025872
0.0248011
0.0242304
0.0238747
0.0237432
0.0238242
0.0240977
0.0245068
0.0246971
0.0260705
0.023498
0.0227004
0.0223675
0.0222612
0.0224145
0.0228359
0.0235296
0.0245293
0.0253725
0.0221184
0.0201775
0.0198026
0.0198571
0.0201496
0.0207457
0.0216845
0.0229648
0.0247808
0.0274704
0.0172475
0.0160865
0.0163029
0.0169118
0.0177539
0.0189265
0.0205278
0.0226261
0.0256218
0.0295927
0.0115714
0.0113328
0.0123384
0.0136819
0.0152168
0.0170639
0.0193923
0.0223416
0.0264976
0.0332116
0.00504138
0.00590572
0.00794489
0.0102209
0.0126146
0.0152334
0.0183396
0.0221284
0.0268229
0.0373746
-0.00259581
-0.000290364
0.00295678
0.00643181
0.00988993
0.013422
0.0173892
0.0221174
0.0267594
0.0404513
-0.0117997
-0.00762789
-0.00287795
0.00201896
0.00672104
0.0113101
0.0161947
0.0217061
0.0267428
0.0405354
-0.0230876
-0.0165967
-0.0100362
-0.00354475
0.00256278
0.00834161
0.0142119
0.0199154
0.0258541
0.0341067
0.0242248
0.0239765
0.0236704
0.0232574
0.022733
0.0220912
0.0213258
0.0204337
0.0194141
0.0182684
0.0169995
0.0156098
0.0141005
0.0124714
0.0107249
0.00886543
0.00686778
0.00464123
0.0022268
0.000377514
0.0240712
0.023913
0.02372
0.0233756
0.0229014
0.0223
0.0215662
0.0206983
0.019696
0.0185594
0.0172951
0.0159076
0.0143989
0.0127685
0.0110166
0.00914583
0.00713442
0.00488866
0.00240121
0.000398083
0.0239121
0.0239888
0.0240142
0.0237868
0.0234016
0.0228724
0.0221952
0.0213738
0.0204047
0.0192731
0.0180069
0.0166117
0.0150902
0.0134418
0.0116636
0.00975344
0.00769237
0.00539137
0.00278161
0.000484118
0.0234533
0.0244689
0.02477
0.0246843
0.024421
0.0239875
0.0233852
0.0226336
0.021719
0.0205409
0.0192687
0.0178557
0.0163017
0.0146061
0.0127639
0.0107667
0.00859799
0.00618553
0.00340188
0.000613707
0.0246345
0.0249379
0.0258613
0.0261288
0.0260013
0.0256775
0.0251797
0.0244926
0.0236071
0.0225094
0.0212313
0.0197814
0.0181641
0.0163795
0.0144212
0.0122748
0.00991723
0.00729028
0.00427038
0.00102616
0.0255526
0.0254085
0.0271726
0.0279446
0.0279703
0.0277644
0.0274086
0.0268411
0.0260328
0.0249909
0.023732
0.0222642
0.0205889
0.0187038
0.0166009
0.0142604
0.0116522
0.00872061
0.00538104
0.00155675
0.026521
0.0254884
0.0283403
0.0298848
0.0300621
0.0299593
0.0297864
0.0294069
0.0287315
0.0277744
0.0265576
0.0250918
0.0233712
0.0213871
0.0191292
0.0165694
0.0136752
0.010365
0.00661485
0.00213496
0.0276077
0.0248418
0.0285281
0.0310948
0.0316804
0.0318386
0.0319552
0.0318205
0.0313306
0.0305104
0.0293676
0.0279383
0.0261934
0.0241176
0.0217046
0.0189149
0.0157246
0.0119991
0.00777652
0.00265562
0.0290274
0.0259373
0.0299535
0.0327888
0.0336298
0.0340286
0.0343536
0.0343332
0.0339103
0.033107
0.0318658
0.0304447
0.0286622
0.026492
0.0239254
0.0209158
0.0174459
0.01333
0.00865894
0.00299941
0.0236526
0.0250747
0.0303799
0.0330785
0.034495
0.0357208
0.0365096
0.0366767
0.0363632
0.0356713
0.0346953
0.033164
0.0311813
0.0287758
0.0259006
0.0226471
0.0188743
0.0143876
0.00931902
0.00325144
0.0365948
0.0385731
0.0371824
0.036795
0.0375433
0.0384043
0.0387767
0.0386251
0.0380739
0.0371669
0.035938
0.0344106
0.0322077
0.029645
0.0267335
0.0231675
0.0191777
0.0145167
0.00931429
0.00322762
0.0354566
0.0376164
0.0387314
0.0393943
0.0400371
0.0404677
0.0404803
0.0400425
0.0392137
0.0380247
0.0364711
0.0344227
0.0322684
0.0295929
0.026486
0.0228549
0.0187771
0.0140841
0.00890352
0.00301119
0.0424958
0.0429013
0.0436099
0.0439671
0.0438995
0.0435166
0.0428607
0.0419161
0.040674
0.0391256
0.0372619
0.0350477
0.0325441
0.0296344
0.0263298
0.0225692
0.0183824
0.0136845
0.00855375
0.00291669
0.0507499
0.0486353
0.0483014
0.0481955
0.0476125
0.0466025
0.0453491
0.0439094
0.0422548
0.0403457
0.0381568
0.0356654
0.032871
0.029735
0.0262365
0.0223509
0.0180694
0.0133864
0.00830104
0.0028828
0.0593106
0.0553656
0.0537945
0.0529273
0.0517297
0.0500896
0.0482113
0.0462147
0.0440852
0.0417692
0.0392194
0.0364148
0.0333334
0.0299632
0.0262678
0.0222549
0.0178787
0.0131956
0.00813311
0.0028629
0.0683348
0.0629787
0.06002
0.0581217
0.0561686
0.0538669
0.0513518
0.048768
0.0461253
0.0433719
0.0404413
0.037308
0.033935
0.0303255
0.0264306
0.0222805
0.017804
0.0130935
0.00803316
0.00284354
0.0776674
0.0709687
0.0666166
0.0635972
0.0608072
0.057817
0.054667
0.0514931
0.0483233
0.0451161
0.041793
0.0383225
0.0346551
0.0308015
0.0267043
0.0224061
0.0178224
0.0130593
0.00798355
0.00282286
0.0868563
0.0789422
0.0733355
0.0692293
0.0655758
0.0618775
0.0580954
0.0543391
0.0506418
0.0469734
0.0432506
0.0394372
0.0354732
0.0313713
0.0270689
0.0226133
0.0179144
0.0130789
0.00797129
0.00280551
0.0956292
0.0867331
0.0800479
0.074923
0.0704059
0.0659893
0.0615804
0.0572553
0.0530399
0.0489124
0.0447884
0.0406305
0.0363695
0.032018
0.0275079
0.0228885
0.0180661
0.0131446
0.00798915
0.00279837
0.103907
0.094266
0.0866523
0.0805722
0.0752059
0.0700769
0.0650565
0.0601846
0.0554703
0.0508955
0.046377
0.0418788
0.0373243
0.0327254
0.0280073
0.0232215
0.0182682
0.0132525
0.00803397
0.0028072
0.111627
0.101454
0.0930363
0.0860588
0.0798718
0.0740551
0.0684534
0.063067
0.0578823
0.0528815
0.0479833
0.0431561
0.0383163
0.0334765
0.0285531
0.023602
0.0185129
0.0133986
0.00810375
0.00283378
0.11869
0.108187
0.0990821
0.0912702
0.0843059
0.0778429
0.0717031
0.0658438
0.0602247
0.0548264
0.0495712
0.0444324
0.0393208
0.0342505
0.0291285
0.0240158
0.01879
0.0135744
0.00819437
0.00287369
0.12502
0.114355
0.104679
0.0961106
0.0884296
0.0813743
0.074747
0.0684618
0.0624503
0.0566881
0.0511041
0.0456747
0.0403094
0.0350217
0.0297121
0.0244433
0.0190846
0.013765
0.00829685
0.00291505
0.130612
0.119877
0.109736
0.100508
0.0921893
0.0846033
0.0775416
0.0708776
0.0645188
0.0584342
0.0525492
0.0468511
0.0412528
0.035763
0.0302811
0.0248626
0.01938
0.0139532
0.00840034
0.00294279
0.135508
0.124703
0.114187
0.104416
0.0955544
0.0875043
0.0800571
0.0730568
0.0663905
0.0600165
0.0538694
0.0479317
0.042126
0.03645
0.0308135
0.0252528
0.0196594
0.0141231
0.00849544
0.00294655
0.139727
0.128797
0.117984
0.107797
0.098497
0.0900505
0.0822672
0.0749723
0.0680406
0.0614159
0.0550424
0.048894
0.0429076
0.0370635
0.0312923
0.0255992
0.0199109
0.0142662
0.00857591
0.00292479
0.143236
0.132115
0.121071
0.11059
0.100966
0.0922026
0.084138
0.0765932
0.0694394
0.0626046
0.0560424
0.0497144
0.0435762
0.0375861
0.0317023
0.0258917
0.0201251
0.0143798
0.00863908
0.00288627
0.14596
0.13463
0.123411
0.112735
0.102889
0.0938927
0.0856113
0.0778691
0.0705416
0.0635427
0.0568342
0.050364
0.0441069
0.0379995
0.0320277
0.026121
0.0202939
0.0144641
0.0086852
0.0028444
0.147912
0.136387
0.125023
0.114211
0.104217
0.0950634
0.0866322
0.0787521
0.0713047
0.0641928
0.0573841
0.0508151
0.0444761
0.0382862
0.0322538
0.0262791
0.0204105
0.0145204
0.00871472
0.00281022
0.149092
0.13743
0.125938
0.115022
0.104935
0.0956911
0.0871757
0.0792198
0.0717074
0.0645355
0.0576736
0.0510528
0.0446701
0.0384374
0.0323722
0.0263629
0.0204712
0.0145513
0.00872929
0.00279438
0.202475
0.16314
0.130032
0.102978
0.0817851
0.0656917
0.0539962
0.0451381
0.0396746
0.0284616
0.218366
0.180198
0.147709
0.120437
0.0984241
0.0804035
0.0669236
0.0540472
0.0468661
0.0325007
0.233024
0.196289
0.164789
0.137565
0.115117
0.0951981
0.0801113
0.064126
0.0561421
0.0424277
0.246388
0.210945
0.180309
0.153048
0.13034
0.109169
0.0934062
0.0765966
0.06815
0.0544174
0.258467
0.224098
0.194167
0.166914
0.144182
0.122576
0.106651
0.0896929
0.0797874
0.0651884
0.269366
0.235933
0.206655
0.179592
0.157022
0.135376
0.119078
0.101665
0.0902157
0.0752285
0.279182
0.246613
0.217974
0.191241
0.168845
0.147195
0.130363
0.112601
0.100381
0.0854646
0.287982
0.256217
0.22818
0.201824
0.179555
0.157949
0.140791
0.123072
0.110537
0.0956937
0.295799
0.264773
0.237281
0.21132
0.189192
0.16777
0.150534
0.133027
0.120172
0.1054
0.302674
0.27232
0.245315
0.219772
0.197828
0.176696
0.159448
0.14214
0.128922
0.114356
0.308676
0.278947
0.252368
0.22725
0.205503
0.184683
0.167398
0.150281
0.136769
0.122494
0.313836
0.284728
0.258527
0.233824
0.212263
0.19174
0.174418
0.157498
0.143795
0.129742
0.318235
0.289677
0.263854
0.239559
0.218188
0.197937
0.180623
0.163864
0.150056
0.136077
0.321933
0.293884
0.268443
0.244536
0.223373
0.203361
0.186108
0.169452
0.155603
0.141599
0.325045
0.297467
0.272395
0.248843
0.227896
0.208093
0.190927
0.17435
0.160486
0.146478
0.327646
0.3005
0.27576
0.252531
0.231783
0.212186
0.195091
0.178633
0.164725
0.150818
0.329757
0.303002
0.278539
0.255618
0.235026
0.215656
0.198587
0.182313
0.168295
0.154574
0.331336
0.304941
0.280706
0.258081
0.237604
0.218481
0.201399
0.185342
0.171164
0.157617
0.332281
0.306213
0.282177
0.259836
0.239464
0.220586
0.203494
0.187638
0.173312
0.15987
0.332538
0.306687
0.282792
0.260667
0.240397
0.221712
0.204651
0.18895
0.174565
0.161191
0.791367
0.792546
0.786178
0.77382
0.756699
0.734418
0.704585
0.664026
0.614485
0.587396
0.740689
0.737893
0.723618
0.704773
0.682449
0.654567
0.617865
0.568994
0.509781
0.475576
0.683808
0.675604
0.655303
0.631453
0.604352
0.570888
0.527431
0.470644
0.402332
0.361477
0.617815
0.6055
0.581748
0.554535
0.523444
0.484945
0.435406
0.371695
0.295318
0.248962
0.547724
0.532087
0.505956
0.476159
0.441676
0.398834
0.344187
0.2751
0.192125
0.142195
0.477566
0.458806
0.430783
0.398897
0.361591
0.315152
0.25632
0.183554
0.0962813
0.0458196
0.409425
0.387838
0.358482
0.325095
0.285654
0.236569
0.17459
0.0985247
0.0141445
-0.0375179
0.344696
0.320905
0.290923
0.256787
0.216044
0.165552
0.102155
0.0259579
-0.0543144
-0.105628
0.284688
0.259599
0.22982
0.195732
0.154665
0.10394
0.0412924
-0.0325287
-0.107472
-0.156878
0.230139
0.205413
0.176523
0.142948
0.102547
0.0531029
-0.00703252
-0.0762289
-0.143947
-0.190671
1.06575
1.07409
1.08373
1.09472
1.10704
1.12057
1.13487
1.14864
1.16111
1.17844
1.06292
1.07066
1.07986
1.09035
1.10204
1.11479
1.12814
1.14075
1.1519
1.1685
1.05695
1.06349
1.07181
1.08132
1.09176
1.10297
1.11441
1.12471
1.13335
1.14829
1.04728
1.05202
1.05905
1.06711
1.07572
1.08464
1.09327
1.10015
1.10507
1.11747
1.03316
1.03548
1.04083
1.04704
1.05327
1.05922
1.06418
1.0666
1.0666
1.07557
1.01372
1.01299
1.0163
1.02031
1.02368
1.02603
1.02655
1.02354
1.01748
1.02213
0.98811
0.98376
0.984836
0.986375
0.986427
0.984591
0.979944
0.970606
0.957411
0.956889
0.954804
0.946434
0.945443
0.944501
0.940942
0.93446
0.924073
0.907665
0.886377
0.879913
0.913295
0.901247
0.898797
0.895068
0.887311
0.875683
0.859066
0.834973
0.804779
0.79176
0.858299
0.847423
0.845066
0.83816
0.825786
0.808754
0.785569
0.75333
0.713603
0.693631
1.00039
1.00149
1.00314
1.00496
1.00677
1.0086
1.01052
1.01256
1.01475
1.01711
1.01967
1.02245
1.0255
1.02886
1.03257
1.0367
1.0413
1.04643
1.05216
1.05858
1.00039
1.00149
1.00312
1.00489
1.00666
1.00845
1.01033
1.01232
1.01446
1.01676
1.01925
1.02195
1.0249
1.02815
1.03174
1.0357
1.04011
1.045
1.05044
1.05651
1.00041
1.00149
1.00304
1.00473
1.00642
1.00813
1.00992
1.01182
1.01384
1.01602
1.01835
1.02088
1.02364
1.02665
1.02995
1.03358
1.03757
1.04197
1.04677
1.05207
1.00043
1.00147
1.00289
1.00445
1.00601
1.00759
1.00924
1.01098
1.01283
1.01478
1.01687
1.01912
1.02154
1.02417
1.027
1.03008
1.03339
1.03696
1.04071
1.04476
1.00043
1.0014
1.00264
1.00401
1.00539
1.00677
1.0082
1.0097
1.01129
1.01293
1.01466
1.01649
1.01843
1.02047
1.02262
1.02485
1.02715
1.02948
1.03167
1.03383
1.00041
1.00127
1.00228
1.00338
1.0045
1.00562
1.00677
1.00796
1.00913
1.01033
1.01156
1.01282
1.01407
1.0153
1.01647
1.01753
1.0184
1.019
1.019
1.01847
1.00034
1.00104
1.00175
1.00252
1.0033
1.00408
1.00485
1.00556
1.00623
1.00687
1.00745
1.00793
1.00827
1.0084
1.00826
1.00771
1.00664
1.00487
1.00201
0.99798
1.00021
1.00065
1.00103
1.0014
1.00177
1.0021
1.00234
1.00249
1.00254
1.00247
1.00221
1.0017
1.00088
0.999611
0.997805
0.995225
0.991712
0.986834
0.980172
0.971018
1
1.00005
1.00004
0.999963
0.999825
0.999589
0.999227
0.998713
0.998011
0.997049
0.995766
0.994037
0.991784
0.988774
0.984934
0.979782
0.973337
0.964516
0.953443
0.937469
0.999795
0.999316
0.998858
0.998325
0.997611
0.996703
0.995612
0.994296
0.992686
0.990654
0.988118
0.984868
0.980819
0.975526
0.968977
0.960132
0.949438
0.934267
0.916951
0.890822
0.999524
0.998584
0.997775
0.996769
0.995397
0.993709
0.991791
0.989585
0.986974
0.983763
0.97985
0.974945
0.968964
0.96128
0.951936
0.939471
0.924476
0.902857
0.87669
0.83245
0.999232
0.997939
0.996789
0.995231
0.993096
0.990588
0.987876
0.984844
0.981318
0.977039
0.971933
0.965643
0.958148
0.948664
0.937394
0.922597
0.905234
0.881274
0.854228
0.816278
0.999696
0.998144
0.996419
0.993898
0.990664
0.987229
0.983763
0.979958
0.975543
0.970225
0.963995
0.956444
0.947623
0.936636
0.92386
0.907456
0.88881
0.864146
0.837664
0.801771
0.999254
0.999187
0.997492
0.993183
0.988145
0.983601
0.979448
0.974922
0.969613
0.963245
0.955914
0.947169
0.937132
0.924814
0.910783
0.893134
0.873625
0.848428
0.822195
0.78704
0.999302
1.00128
0.999169
0.992211
0.985002
0.979458
0.974815
0.969653
0.963466
0.956072
0.947701
0.937856
0.926728
0.913255
0.898185
0.879559
0.859405
0.833831
0.807796
0.773572
0.999385
1.00282
0.999616
0.989891
0.981019
0.975036
0.970074
0.96422
0.957114
0.948742
0.93942
0.928583
0.916476
0.90201
0.886068
0.866696
0.846058
0.820369
0.794584
0.761485
0.994652
0.993072
0.989361
0.981347
0.975009
0.97046
0.965386
0.958614
0.950518
0.941269
0.93113
0.919429
0.906443
0.891128
0.874442
0.854535
0.833534
0.807968
0.782418
0.750513
0.998955
0.980356
0.963732
0.962183
0.965534
0.965491
0.960665
0.952767
0.943666
0.933703
0.922911
0.910488
0.896722
0.880701
0.863381
0.843124
0.821846
0.796573
0.7712
0.7405
0.993512
0.96226
0.943509
0.94887
0.959368
0.962233
0.957029
0.947772
0.937557
0.92682
0.915327
0.902188
0.887665
0.871026
0.853137
0.832654
0.81114
0.786245
0.760986
0.73143
0.992996
0.958246
0.938168
0.945361
0.957497
0.960291
0.953954
0.943502
0.932335
0.920813
0.908541
0.894669
0.879426
0.862263
0.843885
0.823261
0.801553
0.777049
0.751875
0.72332
0.997112
0.972819
0.9575
0.959785
0.963828
0.960868
0.951863
0.940359
0.928443
0.916065
0.902858
0.888174
0.872233
0.854608
0.835823
0.81509
0.793235
0.769053
0.743977
0.716201
0.990742
0.993524
0.999311
0.993068
0.979829
0.965377
0.951863
0.939077
0.926374
0.912953
0.898612
0.882992
0.86635
0.848271
0.829141
0.808265
0.78631
0.762301
0.737372
0.710077
1.0014
1.02141
1.03135
1.01617
0.990825
0.968322
0.951522
0.937859
0.924636
0.910387
0.895093
0.878665
0.861466
0.843011
0.823652
0.802616
0.780646
0.756662
0.731963
0.704843
1.00761
1.03602
1.04684
1.02713
0.995849
0.969144
0.950672
0.936618
0.923088
0.908211
0.892172
0.875084
0.857457
0.838683
0.81917
0.797959
0.776027
0.751977
0.727565
0.700443
1.00985
1.04391
1.05597
1.03212
0.996255
0.967216
0.948427
0.934697
0.92121
0.905971
0.889432
0.871875
0.853936
0.834909
0.815272
0.793928
0.772039
0.747978
0.723827
0.696827
1.00644
1.04764
1.06784
1.04009
0.996731
0.963783
0.944291
0.931093
0.918082
0.902905
0.886278
0.868596
0.850507
0.831335
0.811579
0.79021
0.768339
0.744446
0.720461
0.69389
0.975983
0.98617
1.01494
1.01336
0.991907
0.967071
0.946503
0.929986
0.915001
0.899493
0.883122
0.865676
0.847546
0.828271
0.80834
0.78701
0.765103
0.741504
0.717574
0.691579
1.00197
0.942124
0.892517
0.906451
0.93836
0.952003
0.944429
0.927288
0.909894
0.894273
0.879047
0.862596
0.844796
0.825601
0.805574
0.78436
0.762447
0.739178
0.715288
0.689783
1.00713
0.943929
0.881549
0.888917
0.92407
0.942777
0.939038
0.9244
0.908027
0.892416
0.876998
0.860566
0.842834
0.823764
0.803719
0.782602
0.760672
0.737636
0.713783
0.688629
0.971739
0.987491
1.02316
1.01092
0.975455
0.948244
0.933292
0.922032
0.90904
0.893744
0.877183
0.859904
0.841905
0.822898
0.802872
0.781799
0.759818
0.73689
0.713054
0.688142
0.785534
0.731131
0.675341
0.613863
0.547996
0.482045
0.41821
0.357275
0.300261
0.248176
0.779583
0.722965
0.664235
0.605541
0.543621
0.481047
0.420818
0.363643
0.310351
0.261824
0.768094
0.713595
0.653926
0.597502
0.540077
0.481269
0.424287
0.370435
0.320421
0.274473
0.755935
0.70508
0.645883
0.590495
0.536653
0.4816
0.427669
0.376674
0.329464
0.285873
0.7442
0.696659
0.638921
0.584314
0.53327
0.481893
0.431036
0.382568
0.337753
0.296213
0.733098
0.68839
0.632802
0.579225
0.530325
0.482227
0.434375
0.388218
0.345429
0.30562
0.722622
0.680321
0.627276
0.575121
0.527963
0.482625
0.437585
0.393585
0.352529
0.314164
0.712761
0.672529
0.622265
0.571931
0.526311
0.483193
0.440622
0.398609
0.359055
0.321897
0.703591
0.665135
0.617755
0.569554
0.525371
0.483967
0.443427
0.403186
0.364958
0.328829
0.695259
0.658317
0.61376
0.567847
0.525033
0.484912
0.445938
0.407216
0.370176
0.334965
0.687982
0.652331
0.610324
0.566631
0.525092
0.485922
0.448093
0.410622
0.374628
0.340304
0.681948
0.647413
0.607482
0.565697
0.525284
0.486841
0.44985
0.413397
0.378276
0.344628
0.677124
0.643578
0.605168
0.564826
0.525348
0.487514
0.451185
0.415589
0.381321
0.348485
0.673335
0.640625
0.603226
0.563866
0.525129
0.487855
0.452117
0.417276
0.383797
0.351676
0.670242
0.638126
0.601405
0.562737
0.524614
0.487885
0.452708
0.418546
0.385767
0.354298
0.667467
0.635667
0.599521
0.561498
0.52395
0.487741
0.453077
0.419507
0.38733
0.356446
0.664913
0.633206
0.597638
0.560308
0.523324
0.487566
0.453316
0.420227
0.388544
0.358163
0.662721
0.63097
0.595896
0.559203
0.522704
0.487296
0.453347
0.42064
0.389358
0.359413
0.661279
0.629407
0.594592
0.558271
0.522036
0.486807
0.453031
0.420601
0.389641
0.360076
0.660704
0.628783
0.594049
0.557804
0.521564
0.486302
0.452527
0.420206
0.389409
0.360088
)
;

boundaryField
{
    bottom
    {
        type            symmetryPlane;
    }
    right
    {
        type            fixedValue;
        value           uniform 0;
    }
    top
    {
        type            symmetryPlane;
    }
    left
    {
        type            fixedValue;
        value           uniform 1;
    }
    cylinder
    {
        type            zeroGradient;
    }
    defaultFaces
    {
        type            empty;
    }
}


// ************************************************************************* //
