/*--------------------------------*- C++ -*----------------------------------*\
| =========                 |                                                 |
| \\      /  F ield         | OpenFOAM: The Open Source CFD Toolbox           |
|  \\    /   O peration     | Version:  4.1                                   |
|   \\  /    A nd           | Web:      www.OpenFOAM.org                      |
|    \\/     M anipulation  |                                                 |
\*---------------------------------------------------------------------------*/
FoamFile
{
    version     2.0;
    format      ascii;
    class       volVectorField;
    location    "13.3";
    object      U;
}
// * * * * * * * * * * * * * * * * * * * * * * * * * * * * * * * * * * * * * //

dimensions      [0 1 -1 0 0 0 0];

internalField   nonuniform List<vector> 
2000
(
(-0.0242392 0.0219041 5.38237e-21)
(0.00937144 0.018678 0)
(0.111763 0.00393601 4.06896e-21)
(0.266631 -0.01249 7.20108e-22)
(0.456643 -0.024387 -1.23259e-21)
(0.660962 -0.0297603 1.39643e-21)
(0.861411 -0.0283962 -4.61428e-22)
(1.04019 -0.0247506 0)
(1.20949 -0.013748 1.71746e-21)
(1.31376 -0.00777522 0)
(-0.0171129 0.0150634 -2.55756e-21)
(0.0526942 0.000191851 1.33184e-21)
(0.208722 -0.0172171 -7.46084e-21)
(0.421689 -0.0295228 -6.39541e-21)
(0.658974 -0.0329742 -7.32208e-22)
(0.889594 -0.028647 -7.40363e-22)
(1.09281 -0.019475 -2.32066e-23)
(1.25935 -0.0100364 1.16739e-21)
(1.39396 0.00194607 -1.71738e-21)
(1.4745 0.00206443 -4.65718e-21)
(-0.00324556 0.00656215 3.92842e-21)
(0.11728 -0.0191751 -3.67963e-21)
(0.337964 -0.0342836 3.84472e-21)
(0.607104 -0.0369173 -1.20301e-21)
(0.874117 -0.0289656 1.34064e-21)
(1.10473 -0.0155712 3.61013e-22)
(1.28589 -0.00160366 -4.73478e-22)
(1.4195 0.00939316 -1.16736e-21)
(1.51598 0.0179612 -1.98837e-21)
(1.58398 0.0183013 2.58139e-21)
(0.0195114 -0.00301388 -6.20773e-22)
(0.206005 -0.0362142 -4.88881e-21)
(0.495575 -0.0422537 0)
(0.805767 -0.0311638 2.26381e-21)
(1.07566 -0.0125497 -3.33074e-21)
(1.2812 0.00597308 0)
(1.42539 0.020237 0)
(1.52312 0.0287397 0)
(1.59347 0.0339424 1.98845e-21)
(1.64202 0.031892 -5.87488e-21)
(0.0530589 -0.0124026 1.48719e-20)
(0.31867 -0.0464251 -1.01229e-22)
(0.669981 -0.0369774 4.54776e-21)
(0.995811 -0.0119897 1.89116e-21)
(1.24312 0.0130541 1.77471e-21)
(1.40992 0.031742 6.51043e-22)
(1.51679 0.0428039 0)
(1.58787 0.0477058 -9.77525e-22)
(1.64116 0.0490767 7.85952e-21)
(1.68745 0.0451688 -1.11233e-20)
(0.0984703 -0.0196723 -2.53825e-20)
(0.450379 -0.0451093 1.49046e-21)
(0.844446 -0.0169219 -8.87574e-21)
(1.15948 0.0181702 7.12948e-21)
(1.36905 0.0442803 -4.34667e-21)
(1.49613 0.0593853 1.76355e-21)
(1.57372 0.0658238 0)
(1.6278 0.066787 9.77596e-22)
(1.67432 0.06487 -1.54364e-21)
(1.71952 0.0603388 -1.04786e-20)
(0.155454 -0.0224045 0)
(0.591452 -0.0289706 0)
(1.00311 0.0166994 -4.87833e-21)
(1.28833 0.0561941 4.54139e-21)
(1.45613 0.0788977 -1.12094e-21)
(1.54956 0.0883237 1.0524e-21)
(1.60688 0.0896261 -2.57469e-21)
(1.65188 0.0867714 2.43367e-21)
(1.69567 0.0820623 5.36621e-21)
(1.74203 0.0766272 -2.56026e-21)
(0.221803 -0.018177 6.00904e-21)
(0.729657 0.00270039 0)
(1.13565 0.0612336 -1.99138e-21)
(1.38159 0.0995333 7.3261e-21)
(1.51063 0.115725 -2.97967e-21)
(1.57837 0.118407 0)
(1.62301 0.114498 0)
(1.6637 0.107928 0)
(1.70737 0.10067 7.10221e-21)
(1.75495 0.0942562 -6.75101e-21)
(0.293386 -0.00521251 -3.2237e-21)
(0.853706 0.0481492 -3.19468e-22)
(1.23754 0.113707 -3.06824e-21)
(1.4422 0.146261 6.41108e-22)
(1.53863 0.153972 6.8321e-22)
(1.58819 0.149475 -1.32638e-22)
(1.62556 0.140404 0)
(1.66478 0.13021 1.05193e-21)
(1.70902 0.120592 5.89719e-21)
(1.75762 0.112522 -4.43203e-21)
(0.364764 0.0171783 0)
(0.955683 0.104161 -2.28934e-21)
(1.30802 0.171214 0)
(1.47413 0.194818 -5.52922e-22)
(1.54492 0.192944 -4.98699e-22)
(1.58241 0.181165 3.82817e-22)
(1.61607 0.166999 0)
(1.6552 0.15321 -1.05203e-21)
(1.7003 0.141196 -1.23426e-21)
(1.7498 0.130876 -1.61556e-21)
(-0.00451181 0.00436748 0)
(-0.0185087 0.00833376 3.6818e-22)
(-0.0385896 0.00968523 0)
(-0.0578424 0.00974145 4.4526e-22)
(-0.0747041 0.00914308 1.32105e-22)
(-0.0889285 0.00826369 -2.56432e-22)
(-0.100629 0.00735093 2.41494e-22)
(-0.110152 0.00658065 -2.26596e-22)
(-0.118024 0.00609974 1.37067e-25)
(-0.125092 0.00605241 -2.06299e-22)
(-0.00554107 0.0127221 1.21263e-21)
(-0.0198057 0.0242911 -7.43357e-22)
(-0.0388279 0.0282355 6.06886e-22)
(-0.0563498 0.0283396 -2.94146e-22)
(-0.0710354 0.0264747 -1.31342e-21)
(-0.0826958 0.0237371 4.9734e-22)
(-0.091459 0.0208597 0)
(-0.0976465 0.0183864 2.25838e-22)
(-0.101676 0.0167828 2.16356e-22)
(-0.104622 0.0165198 0)
(-0.00750312 0.0199981 -8.09171e-22)
(-0.0223056 0.0382398 0)
(-0.039323 0.0444152 -1.75857e-21)
(-0.0535414 0.0443685 2.13402e-21)
(-0.064039 0.0410527 -4.79706e-22)
(-0.0707617 0.0361984 0)
(-0.0738836 0.030974 0)
(-0.0737309 0.0263078 0)
(-0.0704964 0.0230652 -1.75963e-21)
(-0.0650936 0.0222186 1.67236e-21)
(-0.0102006 0.0257186 0)
(-0.0257766 0.0491894 1.10284e-21)
(-0.0399707 0.0569432 -2.03507e-21)
(-0.0494296 0.0564093 9.43481e-22)
(-0.0538237 0.0514025 -9.09664e-22)
(-0.0533272 0.044134 2.62614e-21)
(-0.0482009 0.0360738 8.72343e-23)
(-0.0388914 0.0284421 -1.66062e-21)
(-0.025517 0.0226876 -1.84185e-21)
(-0.00706453 0.0214753 2.707e-21)
(-0.0134018 0.0297038 -1.14912e-21)
(-0.0297989 0.0565263 1.67613e-21)
(-0.040264 0.0648986 -1.16657e-22)
(-0.0433164 0.0633937 6.21661e-23)
(-0.0393457 0.0564625 -8.97971e-22)
(-0.0288472 0.0466298 2.28344e-21)
(-0.0122398 0.0354812 0)
(0.00991021 0.0243216 8.36431e-22)
(0.0378039 0.0151926 -9.18968e-22)
(0.0734081 0.0127911 3.73122e-21)
(-0.0168733 0.0320066 -1.74045e-22)
(-0.0336838 0.059967 -1.38806e-21)
(-0.0389927 0.0676832 -7.31823e-22)
(-0.0332131 0.0645439 -4.09453e-22)
(-0.0174783 0.0554649 -7.33476e-22)
(0.00735563 0.0432071 -7.5169e-22)
(0.0406203 0.0293747 0)
(0.0813104 0.0150889 -8.36384e-22)
(0.128925 0.00213366 -3.28782e-21)
(0.191775 -0.00218738 5.80406e-22)
(-0.0203736 0.0327974 2.50626e-23)
(-0.0363441 0.0594208 -3.01567e-22)
(-0.0339708 0.064975 0)
(-0.0154169 0.0593306 1.43002e-21)
(0.0174631 0.0478422 -1.0147e-21)
(0.0633526 0.0335417 0)
(0.121062 0.0181639 0)
(0.188757 0.00275272 0)
(0.261845 -0.0128951 1.88923e-21)
(0.36492 -0.0175956 4.03505e-21)
(-0.0236005 0.0322264 -8.60105e-23)
(-0.0361497 0.0549435 8.05685e-23)
(-0.0217272 0.0566902 -4.02803e-24)
(0.0157467 0.0476296 3.90211e-22)
(0.0736712 0.0336119 -7.39004e-22)
(0.149648 0.0179526 -1.03298e-21)
(0.240945 0.00266054 -1.32155e-21)
(0.344234 -0.0106359 -1.62991e-21)
(0.446886 -0.0259783 -1.88901e-21)
(0.597826 -0.0267819 2.61057e-21)
(-0.0259919 0.0303072 -2.62829e-21)
(-0.0307816 0.046592 -4.55896e-23)
(0.0025487 0.0430818 -1.62767e-22)
(0.0678446 0.0302 3.73304e-22)
(0.160939 0.0142515 3.25957e-22)
(0.276673 -0.00121648 1.35874e-21)
(0.408771 -0.014084 -9.552e-22)
(0.549977 -0.0224804 1.62971e-21)
(0.6836 -0.032823 -1.85401e-21)
(0.866317 -0.0255054 4.65083e-21)
(-0.0266299 0.0269351 2.0544e-21)
(-0.0169578 0.0344223 0)
(0.0448761 0.024967 6.59896e-22)
(0.149219 0.00902042 2.24055e-23)
(0.287785 -0.00679655 4.59891e-22)
(0.449433 -0.0191178 -1.05788e-21)
(0.62228 -0.0261606 2.96603e-21)
(0.791886 -0.0285627 0)
(0.953779 -0.0286016 1.85377e-21)
(1.12345 -0.0143 0)
(-0.132253 0.00636067 0)
(-0.140016 0.00621865 1.96458e-22)
(-0.147486 0.00591303 -3.91846e-22)
(-0.154572 0.00559033 1.71113e-22)
(-0.161316 0.00526839 0)
(-0.16772 0.00494527 -1.82548e-22)
(-0.173774 0.00461922 1.83452e-22)
(-0.179468 0.00428937 0)
(-0.184792 0.00395674 0)
(-0.189738 0.00362457 -1.97453e-23)
(-0.194303 0.00330005 0)
(-0.198493 0.00299356 0)
(-0.202333 0.00271842 0)
(-0.205867 0.00249001 0)
(-0.209152 0.00232372 2.15463e-23)
(-0.212251 0.00223083 -2.1658e-23)
(-0.215287 0.00221522 0)
(-0.218554 0.00227658 3.83529e-24)
(-0.222282 0.00240623 -3.85546e-24)
(-0.225295 0.00253685 0)
(-0.108897 0.0175458 0)
(-0.115226 0.0171669 -4.92915e-23)
(-0.12124 0.0163825 0)
(-0.126928 0.0155697 -7.44603e-22)
(-0.132454 0.0147537 7.24017e-22)
(-0.137822 0.0139294 -4.73354e-23)
(-0.143013 0.0130918 3.55914e-22)
(-0.148015 0.0122376 -7.43782e-22)
(-0.152814 0.0113692 6.25848e-22)
(-0.157395 0.0104888 -3.47377e-22)
(-0.161743 0.00961665 -2.84829e-22)
(-0.16585 0.0087806 5.12331e-22)
(-0.16972 0.00801754 -2.62434e-22)
(-0.173372 0.00737166 -1.31974e-22)
(-0.176836 0.00688961 1.0396e-22)
(-0.180148 0.00660973 -2.07508e-23)
(-0.183388 0.00654966 -1.63573e-23)
(-0.186822 0.00670985 -1.61581e-23)
(-0.19075 0.00707109 1.62363e-23)
(-0.194078 0.00746557 -1.01547e-24)
(-0.0641448 0.0245105 4.86143e-23)
(-0.067973 0.0238826 4.93775e-23)
(-0.0712474 0.0229414 5.04866e-23)
(-0.0742632 0.0220144 0)
(-0.0773946 0.0210805 8.70288e-22)
(-0.0806512 0.0201329 -6.7878e-22)
(-0.0840064 0.0191561 0)
(-0.0874446 0.0181434 9.08379e-23)
(-0.090964 0.0171057 4.24831e-23)
(-0.0945461 0.0160067 -5.51797e-22)
(-0.0981597 0.0148845 4.54709e-23)
(-0.101786 0.0137782 6.65614e-22)
(-0.105407 0.0127378 3.37903e-23)
(-0.109008 0.0118272 2.83251e-23)
(-0.112583 0.0111198 2.65048e-23)
(-0.116119 0.0106863 -5.54281e-23)
(-0.11963 0.0105708 5.31223e-23)
(-0.123306 0.0107866 5.74723e-23)
(-0.127525 0.0113321 1.04172e-23)
(-0.131392 0.0120238 -1.45785e-24)
(0.000917664 0.0244583 1.53068e-21)
(-0.000417842 0.0243902 4.35406e-23)
(-0.000139034 0.0237665 -4.34383e-23)
(0.000270893 0.0230425 -1.64527e-21)
(0.000325956 0.0223974 -1.55041e-22)
(-1.15782e-06 0.0217716 -4.90079e-23)
(-0.000681233 0.0211021 1.44253e-21)
(-0.00167398 0.0203754 -8.48806e-22)
(-0.00305002 0.0195753 -7.48614e-22)
(-0.00480694 0.0187039 7.22887e-22)
(-0.00685949 0.0177847 -4.55907e-23)
(-0.00921495 0.0168402 -7.48955e-22)
(-0.0118622 0.0159145 -3.35092e-23)
(-0.0147783 0.0150723 -3.00747e-22)
(-0.0179342 0.0143966 2.08866e-22)
(-0.0212876 0.0139801 1.66822e-22)
(-0.0247848 0.0138994 -1.44918e-22)
(-0.0284898 0.0141895 0)
(-0.032796 0.0148648 -2.33843e-23)
(-0.0373091 0.015793 -1.21953e-24)
(0.0891616 0.0172641 -3.59119e-21)
(0.0916201 0.0186487 1.58225e-21)
(0.0938212 0.0183429 -1.68945e-21)
(0.0970949 0.0179992 0)
(0.100227 0.0179317 1.05165e-22)
(0.102789 0.0179324 1.69947e-21)
(0.104843 0.017873 6.19513e-23)
(0.106461 0.0177372 -5.272e-23)
(0.107618 0.0175145 -1.61497e-21)
(0.108285 0.0172511 -9.04975e-23)
(0.108454 0.0169336 0)
(0.108111 0.0165689 7.93629e-23)
(0.10725 0.0161878 0)
(0.105871 0.01584 6.55374e-23)
(0.103989 0.0155943 0)
(0.101635 0.0155404 0)
(0.0988763 0.0157686 -3.93388e-23)
(0.0957378 0.0163345 4.92025e-23)
(0.0919002 0.0172413 -4.4218e-23)
(0.0872387 0.0184655 1.14532e-23)
(0.213162 0.00547124 0)
(0.217385 0.00810859 1.05037e-22)
(0.21963 0.00817425 3.6791e-21)
(0.22389 0.0082736 -3.55822e-21)
(0.228569 0.00885411 1.21086e-22)
(0.232702 0.00952252 0)
(0.236347 0.0100889 1.81009e-21)
(0.239663 0.0105768 -3.45662e-21)
(0.242641 0.0110336 1.87807e-21)
(0.245207 0.0114718 1.10035e-22)
(0.247307 0.0118827 1.04856e-22)
(0.248901 0.0122724 9.87224e-23)
(0.249948 0.0126615 0)
(0.250415 0.0130835 -5.04967e-22)
(0.250278 0.0135839 1.17724e-21)
(0.249531 0.0142309 -5.14289e-22)
(0.248206 0.0150989 5.27429e-23)
(0.246328 0.0162705 3.97339e-23)
(0.243821 0.0177212 -1.44448e-23)
(0.239756 0.0196254 1.45226e-23)
(0.387083 -0.00724799 -4.28861e-21)
(0.390551 -0.00325658 0)
(0.390191 -0.00293313 1.19197e-22)
(0.392699 -0.00259688 -2.48583e-22)
(0.396526 -0.00164502 -2.5009e-22)
(0.400055 -0.000616408 -1.28764e-22)
(0.403282 0.00028654 -1.28379e-22)
(0.406469 0.00114985 1.81272e-21)
(0.409599 0.00205132 -2.16312e-21)
(0.412537 0.00299606 -2.02497e-21)
(0.415192 0.0039734 1.68806e-21)
(0.417505 0.0049934 -2.06511e-22)
(0.419424 0.00607396 7.34894e-22)
(0.420885 0.00723891 -1.51614e-22)
(0.421855 0.00850901 -8.18892e-22)
(0.422282 0.00993707 -7.23594e-23)
(0.422208 0.0115504 8.43382e-23)
(0.421516 0.0134762 -9.60898e-23)
(0.420618 0.0155986 -1.6678e-22)
(0.417732 0.0185303 -9.65477e-24)
(0.614408 -0.0152434 0)
(0.614978 -0.0114134 3.61795e-21)
(0.610539 -0.0120225 -3.72174e-21)
(0.609358 -0.0119779 1.28075e-22)
(0.610502 -0.0109132 2.6569e-22)
(0.611876 -0.00980773 1.28651e-22)
(0.613181 -0.00885962 2.65405e-22)
(0.614654 -0.00786237 0)
(0.616264 -0.00672472 1.23381e-22)
(0.61785 -0.00546207 1.19198e-22)
(0.619314 -0.00411752 1.2467e-22)
(0.620604 -0.00267932 2.25828e-22)
(0.621686 -0.00112077 0)
(0.622482 0.000580159 0)
(0.623008 0.00241497 8.16712e-23)
(0.623145 0.00444618 7.01834e-22)
(0.623096 0.00661794 -4.91183e-22)
(0.622426 0.00915813 4.99929e-23)
(0.622193 0.0116262 1.01598e-22)
(0.620028 0.0155266 -3.11251e-23)
(0.87423 -0.0125893 -4.83157e-21)
(0.872559 -0.0106759 0)
(0.867039 -0.0135048 0)
(0.864337 -0.0143744 4.48643e-21)
(0.863506 -0.0140396 -5.37506e-23)
(0.862708 -0.0138364 -9.05763e-21)
(0.861774 -0.0136196 4.38339e-21)
(0.860932 -0.013049 0)
(0.860126 -0.0121463 0)
(0.859198 -0.0110145 0)
(0.858126 -0.00964745 -5.61473e-23)
(0.856936 -0.00801271 -1.79901e-22)
(0.855691 -0.00616639 -1.74784e-21)
(0.854278 -0.00411239 1.68148e-21)
(0.852857 -0.00193708 -7.0084e-22)
(0.851161 0.000464229 6.18803e-22)
(0.84974 0.00289377 0)
(0.847667 0.00582694 -2.1952e-23)
(0.846769 0.00819501 -3.12436e-23)
(0.843915 0.0125498 0)
(1.13797 -0.00895344 5.74528e-23)
(1.14037 -0.0144865 3.84629e-21)
(1.13878 -0.0181423 -3.8063e-21)
(1.13719 -0.017979 0)
(1.13473 -0.0171082 -4.7217e-21)
(1.13124 -0.0164101 9.48173e-21)
(1.1273 -0.015512 -4.75955e-21)
(1.12319 -0.0143051 0)
(1.11893 -0.0129237 -2.32642e-21)
(1.11458 -0.0114035 4.55378e-21)
(1.11031 -0.00971209 -2.29416e-21)
(1.10603 -0.00783659 6.23505e-23)
(1.10187 -0.00582891 0)
(1.09767 -0.00365903 1.73523e-21)
(1.09382 -0.00143682 -2.4059e-21)
(1.08981 0.00108313 7.32772e-22)
(1.08667 0.0034204 4.97421e-22)
(1.08284 0.00637453 -3.4283e-22)
(1.08094 0.00832387 -1.74028e-22)
(1.07693 0.0122979 0)
(1.41839 -0.00158099 0)
(1.40279 -0.00559665 0)
(1.39087 -0.00764113 0)
(1.37969 -0.00851064 0)
(1.36905 -0.00896478 0)
(1.35937 -0.00905356 0)
(1.35078 -0.00875716 0)
(1.34305 -0.00814144 0)
(1.33599 -0.00725712 0)
(1.32942 -0.00611324 0)
(1.32336 -0.0047978 0)
(1.31764 -0.00330841 0)
(1.31239 -0.00173595 0)
(1.30724 6.87135e-05 0)
(1.30277 0.00192356 0)
(1.29811 0.0041613 0)
(1.29453 0.00613309 0)
(1.29012 0.00882768 0)
(1.28797 0.0104154 0)
(1.28343 0.0139129 0)
(1.55089 0.00798063 0)
(1.54379 0.00701132 0)
(1.53729 0.00526574 0)
(1.53083 0.00321143 0)
(1.52434 0.00154609 0)
(1.51799 0.000501793 0)
(1.51195 -8.32169e-06 0)
(1.50624 -9.70497e-05 0)
(1.50086 0.000164904 0)
(1.49572 0.000757611 0)
(1.49089 0.00160509 0)
(1.4862 0.00271314 0)
(1.4819 0.00393947 0)
(1.47767 0.00544229 0)
(1.47402 0.00695211 0)
(1.47011 0.00880504 0)
(1.46722 0.0103742 0)
(1.46345 0.0126304 0)
(1.46175 0.0138638 0)
(1.4577 0.0166505 0)
(1.65 0.0123587 0)
(1.64626 0.00987747 0)
(1.64241 0.00799339 0)
(1.63877 0.00628788 0)
(1.63535 0.00491644 0)
(1.63206 0.00402518 0)
(1.6289 0.00358843 0)
(1.62585 0.00352484 0)
(1.62296 0.00375557 0)
(1.62019 0.00426559 0)
(1.61758 0.00498852 0)
(1.61506 0.00595904 0)
(1.61278 0.00708444 0)
(1.61053 0.00845954 0)
(1.60864 0.00981032 0)
(1.60664 0.011503 0)
(1.60524 0.0128867 0)
(1.60341 0.0148966 0)
(1.60267 0.0159447 0)
(1.60083 0.0183436 0)
(1.73373 0.0162924 0)
(1.73227 0.0131206 0)
(1.72995 0.0108417 0)
(1.72768 0.00899211 0)
(1.72576 0.00749567 0)
(1.72414 0.00642118 0)
(1.72266 0.00577889 0)
(1.72132 0.0055292 0)
(1.7201 0.00559262 0)
(1.71903 0.00595229 0)
(1.71807 0.0065301 0)
(1.71729 0.00737173 0)
(1.71661 0.00833871 0)
(1.71612 0.00957463 0)
(1.71573 0.0107689 0)
(1.71557 0.0123216 0)
(1.71544 0.0135342 0)
(1.71565 0.0153817 0)
(1.71572 0.0162766 0)
(1.71636 0.0184967 0)
(1.8118 0.0187222 0)
(1.81175 0.0151043 0)
(1.81058 0.0123991 0)
(1.80923 0.010323 0)
(1.80817 0.00869141 0)
(1.80745 0.00747334 0)
(1.80689 0.00666147 0)
(1.80649 0.00624506 0)
(1.80615 0.00614809 0)
(1.80602 0.00636159 0)
(1.80596 0.0067858 0)
(1.80616 0.00748511 0)
(1.80636 0.00828714 0)
(1.80695 0.00937926 0)
(1.80738 0.0104004 0)
(1.80842 0.0118112 0)
(1.80899 0.0128472 0)
(1.8106 0.0145568 0)
(1.81109 0.0153093 0)
(1.8135 0.0174011 0)
(1.89087 0.0197786 0)
(1.89152 0.0159856 0)
(1.89108 0.0130556 0)
(1.89029 0.0108302 0)
(1.88966 0.00910581 0)
(1.88935 0.00779729 0)
(1.8892 0.00686585 0)
(1.88921 0.00631577 0)
(1.88925 0.00607313 0)
(1.88952 0.00614651 0)
(1.88979 0.0064159 0)
(1.89042 0.00696822 0)
(1.89094 0.00759922 0)
(1.892 0.00853679 0)
(1.89271 0.00937702 0)
(1.89431 0.0106333 0)
(1.89509 0.0114933 0)
(1.89738 0.0130504 0)
(1.89797 0.0136703 0)
(1.90122 0.0156063 0)
(1.97323 0.0200574 0)
(1.97416 0.0163409 0)
(1.97407 0.0133737 0)
(1.97354 0.011075 0)
(1.97303 0.00928254 0)
(1.97281 0.00790611 0)
(1.97271 0.00688184 0)
(1.97282 0.00621857 0)
(1.9729 0.00584128 0)
(1.97324 0.00577751 0)
(1.97352 0.00589405 0)
(1.97422 0.0062958 0)
(1.97473 0.00675759 0)
(1.97588 0.00753245 0)
(1.97656 0.0081958 0)
(1.97826 0.00928196 0)
(1.97899 0.00997531 0)
(1.98142 0.0113547 0)
(1.98197 0.0118554 0)
(1.98537 0.0135932 0)
(2.05728 0.0200915 0)
(2.05829 0.0165654 0)
(2.05835 0.0136469 0)
(2.05793 0.0113196 0)
(2.05744 0.00947593 0)
(2.05719 0.00804221 0)
(2.05703 0.0069407 0)
(2.05708 0.00617885 0)
(2.05708 0.00567945 0)
(2.05737 0.00548338 0)
(2.05753 0.00545416 0)
(2.05816 0.005705 0)
(2.05854 0.00600589 0)
(2.05962 0.00661316 0)
(2.06015 0.00711016 0)
(2.06178 0.00801464 0)
(2.06236 0.00855573 0)
(2.0647 0.00973724 0)
(2.06513 0.0101334 0)
(2.06839 0.0116414 0)
(2.13933 0.0200539 0)
(2.14043 0.0167299 0)
(2.14065 0.0138876 0)
(2.1404 0.0115637 0)
(2.14001 0.00969276 0)
(2.13982 0.00821812 0)
(2.13967 0.00705644 0)
(2.13974 0.00621144 0)
(2.13973 0.00560602 0)
(2.14001 0.00528678 0)
(2.14013 0.00512345 0)
(2.14074 0.00522703 0)
(2.14104 0.00537873 0)
(2.14208 0.00581832 0)
(2.14252 0.00616241 0)
(2.1441 0.00688062 0)
(2.14458 0.00728452 0)
(2.14683 0.00825827 0)
(2.14719 0.00856294 0)
(2.1503 0.00982597 0)
(2.21567 0.0197815 0)
(2.21704 0.0166516 0)
(2.21764 0.0139049 0)
(2.21781 0.0116185 0)
(2.21778 0.00975355 0)
(2.21789 0.00826355 0)
(2.21798 0.00706435 0)
(2.2183 0.00615593 0)
(2.21848 0.0054651 0)
(2.21898 0.00503821 0)
(2.21926 0.00475772 0)
(2.22005 0.00472472 0)
(2.22046 0.00474297 0)
(2.22165 0.00502287 0)
(2.22216 0.00522998 0)
(2.22387 0.00576737 0)
(2.22439 0.00604934 0)
(2.22675 0.00681856 0)
(2.2271 0.00704302 0)
(2.2303 0.00806409 0)
(2.2848 0.0189132 0)
(2.28677 0.015992 0)
(2.28807 0.0133735 0)
(2.28899 0.0111662 0)
(2.28965 0.00934799 0)
(2.2904 0.00787723 0)
(2.29105 0.00667118 0)
(2.29191 0.0057276 0)
(2.29258 0.00497937 0)
(2.29358 0.00447053 0)
(2.29428 0.00409802 0)
(2.29551 0.00395061 0)
(2.29627 0.00385793 0)
(2.29787 0.00399861 0)
(2.29866 0.00408952 0)
(2.30074 0.00446573 0)
(2.30145 0.00464338 0)
(2.30418 0.00522796 0)
(2.30464 0.00538362 0)
(2.30822 0.00618578 0)
(2.34942 0.0170427 0)
(2.35225 0.0143723 0)
(2.35455 0.0119335 0)
(2.35651 0.00985852 0)
(2.35814 0.00813577 0)
(2.35979 0.00672878 0)
(2.36126 0.00555698 0)
(2.3629 0.00461898 0)
(2.36429 0.00385221 0)
(2.366 0.0033005 0)
(2.36732 0.00287193 0)
(2.3692 0.00264715 0)
(2.37048 0.00247557 0)
(2.37267 0.00251304 0)
(2.37387 0.00251591 0)
(2.3765 0.00276738 0)
(2.37753 0.00286318 0)
(2.38078 0.00330161 0)
(2.38142 0.00340186 0)
(2.38556 0.00402864 0)
(2.41709 0.0139228 0)
(2.42079 0.0115621 0)
(2.42409 0.00937249 0)
(2.4271 0.00749518 0)
(2.42971 0.00592504 0)
(2.43228 0.00463535 0)
(2.43457 0.00354795 0)
(2.43699 0.00266772 0)
(2.43909 0.00193136 0)
(2.44149 0.00138786 0)
(2.44342 0.00094661 0)
(2.44591 0.000693776 0)
(2.4477 0.000484441 0)
(2.45042 0.000467514 0)
(2.45203 0.000417249 0)
(2.45513 0.000593241 0)
(2.45644 0.000634035 0)
(2.46014 0.000978276 0)
(2.46093 0.00103912 0)
(2.46552 0.00154947 0)
(2.49785 0.0097449 0)
(2.50198 0.00774844 0)
(2.50584 0.00587663 0)
(2.50945 0.00425997 0)
(2.51264 0.00289508 0)
(2.51572 0.00177361 0)
(2.51845 0.000819058 0)
(2.52127 4.7732e-05 0)
(2.52372 -0.000609216 0)
(2.52644 -0.00109205 0)
(2.52866 -0.00149854 0)
(2.53139 -0.00172913 0)
(2.53338 -0.00193608 0)
(2.53626 -0.00195848 0)
(2.53801 -0.00202739 0)
(2.5412 -0.00187768 0)
(2.54258 -0.00186547 0)
(2.54629 -0.00156454 0)
(2.54711 -0.00152822 0)
(2.55164 -0.00107905 0)
(2.59835 0.00526389 0)
(2.60209 0.00365468 0)
(2.60569 0.00213795 0)
(2.6091 0.000817078 0)
(2.61209 -0.00031398 0)
(2.61493 -0.00124 0)
(2.61741 -0.00203345 0)
(2.61993 -0.00266452 0)
(2.6221 -0.00321132 0)
(2.62448 -0.00360056 0)
(2.6264 -0.00394081 0)
(2.62874 -0.00411692 0)
(2.63043 -0.00429466 0)
(2.63284 -0.0042914 0)
(2.63428 -0.0043551 0)
(2.63692 -0.00420076 0)
(2.63805 -0.00419814 0)
(2.64108 -0.00390943 0)
(2.64174 -0.0038865 0)
(2.64541 -0.00346595 0)
(2.71559 0.0015123 0)
(2.71817 0.000268773 0)
(2.72071 -0.000903318 0)
(2.72311 -0.00193443 0)
(2.72516 -0.00283537 0)
(2.72702 -0.00357073 0)
(2.72857 -0.004206 0)
(2.7301 -0.00469858 0)
(2.73137 -0.00513401 0)
(2.73275 -0.00542854 0)
(2.73382 -0.00569983 0)
(2.73512 -0.00581872 0)
(2.73601 -0.00596011 0)
(2.73734 -0.00592796 0)
(2.73807 -0.00597887 0)
(2.73951 -0.00581764 0)
(2.74007 -0.00581722 0)
(2.74175 -0.00553972 0)
(2.74206 -0.00552419 0)
(2.74409 -0.00513151 0)
(2.83616 -0.000818487 0)
(2.83731 -0.00174498 0)
(2.83848 -0.00261471 0)
(2.83951 -0.00338682 0)
(2.84027 -0.00407769 0)
(2.84081 -0.00464181 0)
(2.84112 -0.00513555 0)
(2.84133 -0.00550917 0)
(2.8414 -0.00584629 0)
(2.84145 -0.00606284 0)
(2.84139 -0.00627375 0)
(2.84133 -0.00635085 0)
(2.84118 -0.00646142 0)
(2.84108 -0.00641659 0)
(2.8409 -0.00645748 0)
(2.8408 -0.00630731 0)
(2.84064 -0.00630921 0)
(2.84057 -0.00606353 0)
(2.84047 -0.00605395 0)
(2.84044 -0.00571358 0)
(2.94293 -0.00172251 0)
(2.94287 -0.00237606 0)
(2.94283 -0.00298275 0)
(2.94262 -0.00352107 0)
(2.94222 -0.0040114 0)
(2.94153 -0.00441212 0)
(2.9407 -0.00476751 0)
(2.93967 -0.00503115 0)
(2.93864 -0.00527343 0)
(2.93741 -0.00542288 0)
(2.9363 -0.00557569 0)
(2.93493 -0.00562387 0)
(2.93381 -0.00570509 0)
(2.93232 -0.00566346 0)
(2.93129 -0.00569478 0)
(2.92968 -0.00557499 0)
(2.92886 -0.0055784 0)
(2.92709 -0.00538755 0)
(2.9266 -0.00538237 0)
(2.92456 -0.00512099 0)
(3.02213 -0.00145829 0)
(3.0212 -0.00188072 0)
(3.0203 -0.00225884 0)
(3.01919 -0.00258611 0)
(3.01793 -0.00288323 0)
(3.01633 -0.00312446 0)
(3.01468 -0.00333897 0)
(3.01271 -0.00349569 0)
(3.01087 -0.003641 0)
(3.00868 -0.00372827 0)
(3.00678 -0.00381995 0)
(3.00441 -0.00384599 0)
(3.00257 -0.00389463 0)
(3.00001 -0.00386601 0)
(2.99835 -0.00388446 0)
(2.99558 -0.00380811 0)
(2.99426 -0.00380972 0)
(2.99117 -0.00368982 0)
(2.9904 -0.00368636 0)
(2.98682 -0.0035226 0)
(3.06441 -0.000399376 0)
(3.06301 -0.000581813 0)
(3.06165 -0.000737729 0)
(3.06004 -0.000867967 0)
(3.05832 -0.000983018 0)
(3.05622 -0.00107572 0)
(3.05411 -0.00115692 0)
(3.05163 -0.00121662 0)
(3.04935 -0.00127105 0)
(3.04663 -0.00130479 0)
(3.04432 -0.00133913 0)
(3.0414 -0.00135074 0)
(3.03917 -0.00136924 0)
(3.03603 -0.00136148 0)
(3.03403 -0.00136886 0)
(3.03063 -0.00134444 0)
(3.02904 -0.00134549 0)
(3.02525 -0.00130606 0)
(3.02432 -0.00130499 0)
(3.0199 -0.00125041 0)
(1.80329 0.118324 1.57853e-21)
(1.81004 0.105564 0)
(1.80638 0.0921152 -2.39116e-22)
(1.79395 0.0783807 -7.1307e-21)
(1.77142 0.0644868 9.80799e-21)
(1.74283 0.051536 0)
(1.70366 0.038012 6.4659e-21)
(1.65245 0.0282863 0)
(1.60539 0.013295 4.86903e-21)
(1.44133 0.000859264 -7.40585e-23)
(1.86476 0.108944 -1.85668e-21)
(1.86947 0.0981006 3.37407e-22)
(1.86463 0.0864408 -3.38086e-22)
(1.85061 0.0755795 -1.14508e-21)
(1.82951 0.0634603 -6.72825e-21)
(1.79711 0.053879 -3.73189e-22)
(1.7704 0.0417912 0)
(1.70621 0.0338801 -8.02934e-21)
(1.7015 0.0251 0)
(1.55785 0.00962262 -5.18654e-21)
(1.93189 0.0995641 3.84712e-21)
(1.93365 0.0903548 0)
(1.92952 0.0797996 -3.12901e-22)
(1.91134 0.070888 -7.69212e-22)
(1.89514 0.0603157 7.1104e-21)
(1.85395 0.0525178 0)
(1.84015 0.043561 1.13562e-20)
(1.76439 0.0349131 8.29695e-21)
(1.77096 0.0309276 0)
(1.65334 0.0167651 5.13327e-21)
(2.00124 0.091437 -1.7537e-21)
(1.99979 0.0833945 6.99302e-21)
(1.99858 0.0741576 0)
(1.97584 0.0662586 9.67703e-21)
(1.96586 0.0576527 4.98767e-22)
(1.91777 0.0498045 -9.22594e-22)
(1.91011 0.0437466 -1.08536e-20)
(1.8326 0.0340561 -3.57186e-22)
(1.83305 0.0314937 -1.00167e-20)
(1.73416 0.0209577 0)
(2.06949 0.0844087 0)
(2.0655 0.0771127 -6.82699e-21)
(2.06775 0.0694714 -7.50518e-21)
(2.04272 0.0619389 1.0256e-21)
(2.03732 0.0553308 -6.49066e-22)
(1.9882 0.0471096 -4.78376e-22)
(1.98057 0.0426394 -1.42121e-20)
(1.90814 0.0334557 -7.6541e-22)
(1.90088 0.0305146 -1.12762e-21)
(1.81073 0.0232195 9.42807e-21)
(2.1335 0.0780555 2.30052e-21)
(2.12851 0.0712942 4.63824e-22)
(2.1334 0.0651338 -1.26702e-21)
(2.10924 0.0579182 4.04084e-22)
(2.10638 0.0527261 -1.09005e-20)
(2.06105 0.0449035 0)
(2.05252 0.0409179 1.5528e-20)
(1.98664 0.0333825 -4.59784e-22)
(1.9766 0.0297386 2.40588e-20)
(1.88943 0.0242051 -2.00172e-20)
(2.19089 0.0719878 -2.31184e-21)
(2.18643 0.0658086 -4.23587e-21)
(2.19312 0.0607399 7.14481e-21)
(2.172 0.0541783 -1.24457e-20)
(2.17122 0.0497585 -1.50855e-21)
(2.13149 0.0430475 -1.01932e-20)
(2.12449 0.0391045 5.05327e-22)
(2.06441 0.0331501 -9.45518e-22)
(2.05613 0.0291045 -1.2183e-20)
(1.97178 0.0243381 1.05778e-20)
(2.24073 0.0658554 0)
(2.23764 0.060408 9.17659e-21)
(2.24594 0.0560939 -9.65152e-22)
(2.22841 0.0504808 6.73385e-21)
(2.23035 0.0465321 -6.82649e-22)
(2.19607 0.0410777 2.04461e-20)
(2.19295 0.0372464 -9.06012e-21)
(2.13859 0.0323484 0)
(2.13428 0.0283866 0)
(2.05588 0.0240861 0)
(2.2841 0.059413 0)
(2.28257 0.0547653 -8.46195e-21)
(2.29246 0.0510594 -5.32021e-22)
(2.27812 0.0464441 6.97753e-21)
(2.28303 0.0429763 1.23902e-20)
(2.25358 0.0385787 -1.15399e-20)
(2.25483 0.035139 1.09051e-20)
(2.20706 0.0310023 -5.82791e-22)
(2.20681 0.0275087 0)
(2.13792 0.0237238 7.0938e-21)
(2.32459 0.0524963 3.07428e-22)
(2.32449 0.0486003 4.83291e-21)
(2.33553 0.0454781 7.42684e-21)
(2.32368 0.0417445 -3.91688e-22)
(2.33063 0.0388566 8.781e-22)
(2.30544 0.035318 -1.27649e-20)
(2.30958 0.0324887 1.21297e-20)
(2.2691 0.0291112 -6.17059e-22)
(2.27148 0.0262191 0)
(2.21404 0.0231435 -1.45989e-20)
(2.36849 0.0450823 0)
(2.36955 0.0418414 4.8366e-21)
(2.38071 0.0392703 2.25784e-22)
(2.3706 0.0362807 0)
(2.37768 0.0339758 0)
(2.35593 0.0312123 1.13265e-20)
(2.36044 0.0289959 -1.0061e-20)
(2.32658 0.0264762 -5.84663e-22)
(2.32947 0.0241046 3.1643e-22)
(2.28264 0.0219654 7.75777e-21)
(2.42373 0.0371302 0)
(2.42544 0.0345371 -9.2254e-21)
(2.43551 0.0324552 -9.87599e-21)
(2.42626 0.0301395 1.47383e-21)
(2.43158 0.02829 -9.40818e-22)
(2.41187 0.0262788 -7.63433e-22)
(2.41442 0.0244884 1.43638e-21)
(2.38482 0.0228736 9.14375e-21)
(2.38643 0.0208496 8.74215e-22)
(2.34647 0.0197599 -2.68126e-22)
(2.49727 0.0290546 0)
(2.49882 0.0270972 4.97477e-21)
(2.50695 0.025379 -5.41915e-22)
(2.49758 0.0236755 5.37441e-22)
(2.50024 0.0220781 0)
(2.48084 0.0207428 0)
(2.48051 0.0191373 0)
(2.45191 0.0183126 -1.03798e-20)
(2.4516 0.0164775 9.69233e-21)
(2.41333 0.0162804 0)
(2.59109 0.0216839 0)
(2.59156 0.020241 3.1844e-21)
(2.59773 0.0187385 4.06855e-21)
(2.58747 0.0175088 5.22806e-21)
(2.58805 0.0160034 -9.89758e-22)
(2.56774 0.0151363 6.04857e-21)
(2.56542 0.0135712 -5.38123e-21)
(2.53549 0.0132125 0)
(2.53394 0.0114946 6.20817e-22)
(2.4937 0.0117371 -9.15838e-21)
(2.69927 0.0156402 -7.15814e-22)
(2.69818 0.0145449 -2.5849e-21)
(2.70307 0.0132092 -5.26036e-21)
(2.692 0.0122519 -3.67848e-21)
(2.69204 0.0108311 0)
(2.67112 0.010139 -7.68945e-21)
(2.66871 0.00864402 7.72674e-21)
(2.63779 0.00833015 -7.30641e-22)
(2.63628 0.00676847 -4.79821e-21)
(2.59463 0.00690572 1.33282e-20)
(2.80898 0.0111976 7.19487e-22)
(2.80682 0.0102746 -2.01777e-21)
(2.81126 0.00915063 1.78757e-21)
(2.80057 0.00827307 -4.37745e-21)
(2.80141 0.00704788 0)
(2.78191 0.00629247 0)
(2.78086 0.00500254 7.62057e-22)
(2.75216 0.0044441 -7.17727e-21)
(2.75149 0.00312564 -4.38142e-21)
(2.71307 0.00283732 -4.49567e-21)
(2.9064 0.00800771 0)
(2.90444 0.00717539 3.30461e-21)
(2.90885 0.00633934 -1.19863e-21)
(2.90034 0.00547488 3.90701e-21)
(2.90227 0.00455927 1.04233e-21)
(2.8869 0.00369631 -8.62547e-22)
(2.88732 0.00271848 1.61763e-21)
(2.86481 0.00191087 4.96806e-21)
(2.86487 0.000886842 0)
(2.83508 0.000220395 0)
(2.9836 0.00533765 0)
(2.98296 0.00467583 1.35483e-21)
(2.98708 0.00418453 -2.45627e-21)
(2.98199 0.00343701 0)
(2.98433 0.00287363 -2.02967e-21)
(2.97467 0.00205214 -8.74e-22)
(2.97569 0.00140646 -2.43457e-21)
(2.96149 0.00055818 -7.03433e-22)
(2.96165 -0.000172492 3.67573e-22)
(2.94305 -0.000957424 3.05295e-22)
(3.03891 0.00281514 0)
(3.03954 0.00247561 -1.3613e-21)
(3.04278 0.00233313 -1.22039e-21)
(3.04081 0.00188859 1.67329e-21)
(3.04269 0.00165926 9.6875e-22)
(3.03823 0.00110392 9.20209e-22)
(3.03894 0.000764814 4.07097e-21)
(3.03217 0.000135003 -2.95635e-21)
(3.03188 -0.000318437 6.8584e-22)
(3.02309 -0.000950381 0)
(3.06933 0.000637648 0)
(3.07048 0.000642868 6.63821e-22)
(3.0728 0.000728243 -6.32569e-22)
(3.07254 0.000670286 5.95417e-22)
(3.07376 0.00068731 0)
(3.07224 0.000543837 -9.24746e-22)
(3.07243 0.000471844 7.99128e-22)
(3.06988 0.000252358 7.06033e-22)
(3.06911 8.92609e-05 0)
(3.06586 -0.000176888 0)
(1.12956 0.225975 0)
(1.06755 0.24659 -5.39963e-20)
(1.01841 0.274715 0)
(0.978626 0.311342 -1.78733e-19)
(0.943912 0.356047 6.77619e-20)
(0.91179 0.410473 2.21037e-21)
(0.878926 0.474798 5.95791e-20)
(0.827506 0.537459 -6.90385e-21)
(0.70072 0.545222 0)
(0.388352 0.334214 6.25972e-20)
(1.22142 0.22838 9.86741e-20)
(1.16056 0.255099 5.39953e-20)
(1.11102 0.2819 -5.13202e-20)
(1.06964 0.317341 6.02166e-20)
(1.03453 0.362023 -5.15929e-20)
(1.00448 0.416498 7.27824e-21)
(0.975429 0.480402 -6.09873e-20)
(0.926575 0.541449 -1.21694e-19)
(0.791974 0.54585 -3.23019e-20)
(0.439619 0.329545 -9.15947e-20)
(1.30835 0.226811 -4.36412e-20)
(1.25147 0.255793 4.51972e-20)
(1.20275 0.281973 5.13187e-20)
(1.15991 0.316578 5.26107e-20)
(1.12413 0.360772 5.37709e-20)
(1.09577 0.414425 5.45393e-20)
(1.06998 0.47656 8.68293e-21)
(1.02252 0.533934 5.31361e-20)
(0.878283 0.533091 2.10509e-20)
(0.485077 0.314836 -2.24714e-20)
(1.39279 0.222721 8.71533e-20)
(1.33843 0.252191 -4.51953e-20)