/*--------------------------------*- C++ -*----------------------------------*\
| =========                 |                                                 |
| \\      /  F ield         | OpenFOAM: The Open Source CFD Toolbox           |
|  \\    /   O peration     | Version:  4.1                                   |
|   \\  /    A nd           | Web:      www.OpenFOAM.org                      |
|    \\/     M anipulation  |                                                 |
\*---------------------------------------------------------------------------*/
FoamFile
{
    version     2.0;
    format      ascii;
    class       volScalarField;
    location    "7";
    object      p;
}
// * * * * * * * * * * * * * * * * * * * * * * * * * * * * * * * * * * * * * //

dimensions      [0 2 -2 0 0 0 0];

internalField   nonuniform List<scalar> 
2000
(
-0.465169
-0.45335
-0.442352
-0.432167
-0.422733
-0.413014
-0.401574
-0.388501
-0.371074
-0.354887
-0.488391
-0.47277
-0.459136
-0.446097
-0.432621
-0.417536
-0.400181
-0.38071
-0.358768
-0.33777
-0.516677
-0.496493
-0.479631
-0.46252
-0.443082
-0.420905
-0.396515
-0.37097
-0.344651
-0.319352
-0.55003
-0.524443
-0.503474
-0.480276
-0.452569
-0.42179
-0.389981
-0.358682
-0.328392
-0.30111
-0.587641
-0.555844
-0.52933
-0.497279
-0.459081
-0.41882
-0.379642
-0.342998
-0.309399
-0.27951
-0.627506
-0.589061
-0.554479
-0.510587
-0.460404
-0.410538
-0.364434
-0.323044
-0.286312
-0.25403
-0.666149
-0.621313
-0.575129
-0.516942
-0.454393
-0.395527
-0.343247
-0.297658
-0.258082
-0.223333
-0.698952
-0.648306
-0.587266
-0.513469
-0.439196
-0.372451
-0.314935
-0.265812
-0.223649
-0.186654
-0.721098
-0.664783
-0.587121
-0.497893
-0.413288
-0.340069
-0.278412
-0.226531
-0.182296
-0.143596
-0.728356
-0.665866
-0.571344
-0.468439
-0.375473
-0.297338
-0.232698
-0.178951
-0.133409
-0.0939454
-0.35959
-0.366043
-0.369022
-0.371502
-0.373817
-0.375579
-0.376457
-0.376205
-0.37476
-0.372386
-0.363455
-0.369327
-0.372111
-0.374579
-0.376956
-0.378824
-0.379824
-0.379635
-0.378083
-0.375756
-0.37052
-0.375235
-0.37762
-0.379944
-0.382301
-0.384229
-0.385318
-0.385184
-0.383431
-0.38063
-0.379594
-0.382758
-0.384436
-0.386322
-0.388398
-0.390172
-0.391162
-0.391053
-0.389383
-0.383725
-0.389512
-0.390926
-0.391513
-0.392531
-0.393917
-0.395227
-0.395854
-0.395357
-0.39291
-0.38652
-0.39951
-0.399125
-0.398225
-0.397912
-0.39818
-0.398645
-0.398665
-0.397603
-0.395231
-0.385617
-0.409462
-0.407228
-0.404604
-0.402536
-0.401314
-0.400657
-0.399872
-0.39787
-0.396296
-0.383233
-0.419903
-0.415773
-0.411203
-0.407187
-0.40428
-0.402314
-0.400512
-0.397179
-0.395765
-0.381193
-0.431872
-0.425639
-0.419029
-0.413039
-0.408382
-0.404758
-0.401171
-0.396183
-0.392434
-0.37881
-0.446592
-0.43786
-0.429141
-0.421173
-0.414478
-0.408446
-0.401634
-0.393644
-0.384049
-0.371725
-0.369299
-0.364369
-0.357725
-0.349197
-0.338649
-0.326152
-0.311553
-0.294815
-0.275966
-0.255096
-0.232355
-0.207964
-0.182203
-0.155416
-0.127999
-0.100394
-0.0731734
-0.0470898
-0.0219491
0.00510431
-0.373919
-0.369259
-0.362831
-0.354585
-0.344387
-0.332112
-0.317697
-0.3011
-0.282351
-0.261556
-0.238866
-0.214424
-0.188549
-0.161618
-0.134034
-0.106191
-0.078636
-0.0519542
-0.0259733
0.000494054
-0.381285
-0.376965
-0.370841
-0.363064
-0.353492
-0.341707
-0.327689
-0.311394
-0.292861
-0.272223
-0.249443
-0.224902
-0.19886
-0.171663
-0.143716
-0.115438
-0.0872548
-0.0595381
-0.0326044
-0.00503391
-0.388822
-0.384634
-0.378861
-0.371983
-0.362952
-0.351746
-0.338246
-0.322379
-0.304146
-0.283633
-0.260988
-0.236382
-0.210117
-0.182559
-0.1541
-0.125139
-0.0960891
-0.0671012
-0.0389435
-0.00939546
-0.393267
-0.391277
-0.385716
-0.378869
-0.370494
-0.359971
-0.34703
-0.33161
-0.313712
-0.293389
-0.270772
-0.246085
-0.219612
-0.191701
-0.16273
-0.133071
-0.10314
-0.0729439
-0.0434095
-0.0122905
-0.394427
-0.394768
-0.389395
-0.382615
-0.374716
-0.364781
-0.352327
-0.337279
-0.31966
-0.299526
-0.276992
-0.252281
-0.225665
-0.197506
-0.168154
-0.137993
-0.107395
-0.0764232
-0.0457995
-0.0140498
-0.393085
-0.394745
-0.389411
-0.382523
-0.374886
-0.3653
-0.353134
-0.338323
-0.320895
-0.300913
-0.278487
-0.253854
-0.227262
-0.1991
-0.169664
-0.139406
-0.108565
-0.0774687
-0.0463853
-0.0149918
-0.389834
-0.390724
-0.38478
-0.37774
-0.370092
-0.360562
-0.348553
-0.333954
-0.316741
-0.296996
-0.274837
-0.25053
-0.224286
-0.196528
-0.167464
-0.137654
-0.107132
-0.0765724
-0.0456971
-0.0153462
-0.384856
-0.383057
-0.376225
-0.368661
-0.360434
-0.35069
-0.33886
-0.32462
-0.307836
-0.28861
-0.267065
-0.243486
-0.218027
-0.191144
-0.162944
-0.134087
-0.104408
-0.0748731
-0.0446956
-0.0155319
-0.37519
-0.372062
-0.364678
-0.355609
-0.345994
-0.335703
-0.323944
-0.310102
-0.293926
-0.27551
-0.25494
-0.232492
-0.208251
-0.182687
-0.155818
-0.128382
-0.100075
-0.0720584
-0.0432225
-0.0155692
-0.348445
-0.35326
-0.347274
-0.337001
-0.326334
-0.315681
-0.303984
-0.290398
-0.27463
-0.256823
-0.23712
-0.215806
-0.192955
-0.168993
-0.143906
-0.118398
-0.0921181
-0.0662446
-0.0395723
-0.0143228
-0.319731
-0.329863
-0.324886
-0.313221
-0.30135
-0.290444
-0.279168
-0.2663
-0.251409
-0.23467
-0.216281
-0.196538
-0.175485
-0.153502
-0.130529
-0.107231
-0.0832265
-0.059683
-0.0353988
-0.0127289
-0.290178
-0.303031
-0.299285
-0.28779
-0.275975
-0.265515
-0.255066
-0.243233
-0.229495
-0.21404
-0.1971
-0.178983
-0.159715
-0.139641
-0.118672
-0.0974438
-0.0755631
-0.0541832
-0.0321364
-0.0117167
-0.261041
-0.274914
-0.272778
-0.26262
-0.251703
-0.242012
-0.232444
-0.22165
-0.209079
-0.194902
-0.179362
-0.162776
-0.145163
-0.126852
-0.107731
-0.0884146
-0.0685014
-0.0491138
-0.0290954
-0.0106496
-0.232767
-0.246993
-0.24661
-0.238279
-0.228661
-0.219901
-0.211223
-0.201447
-0.190035
-0.177125
-0.162947
-0.147821
-0.131767
-0.115102
-0.0977035
-0.0801608
-0.0620672
-0.044507
-0.0263443
-0.00970368
-0.205967
-0.220259
-0.221469
-0.215029
-0.206866
-0.199149
-0.191398
-0.182636
-0.172363
-0.160692
-0.147828
-0.134086
-0.119489
-0.104353
-0.0885439
-0.0726321
-0.0562061
-0.040315
-0.0238449
-0.00884227
-0.181151
-0.195199
-0.197699
-0.193035
-0.186359
-0.179751
-0.172956
-0.165191
-0.156018
-0.145534
-0.133916
-0.121475
-0.108236
-0.0945121
-0.0801658
-0.0657506
-0.0508511
-0.0364865
-0.0215614
-0.0080557
-0.158399
-0.171954
-0.175463
-0.172406
-0.167178
-0.161693
-0.155855
-0.149056
-0.140931
-0.131569
-0.121126
-0.109903
-0.0979241
-0.0855042
-0.0725027
-0.0594602
-0.0459577
-0.0329895
-0.0194752
-0.00734
-0.137611
-0.150558
-0.154857
-0.15323
-0.149363
-0.144969
-0.140063
-0.134189
-0.12705
-0.11874
-0.109396
-0.0993058
-0.0884943
-0.0772756
-0.0655074
-0.053721
-0.0414941
-0.0298007
-0.0175721
-0.00668973
-0.118733
-0.131034
-0.135946
-0.135569
-0.132949
-0.129586
-0.125566
-0.120562
-0.114345
-0.107012
-0.0986863
-0.0896436
-0.0799059
-0.0697878
-0.0591456
-0.0485039
-0.037437
-0.0269031
-0.0158421
-0.00610066
-0.101746
-0.113383
-0.118762
-0.119467
-0.117969
-0.115556
-0.112362
-0.108166
-0.102797
-0.0963643
-0.0889724
-0.0808887
-0.072131
-0.0630142
-0.0533936
-0.0437885
-0.0337703
-0.0242848
-0.0142784
-0.00556987
-0.0866136
-0.0975875
-0.103314
-0.104946
-0.104444
-0.102892
-0.100453
-0.0969952
-0.0924004
-0.0867838
-0.0802392
-0.073024
-0.0651516
-0.0569375
-0.0482355
-0.0395613
-0.0304836
-0.0219383
-0.0128765
-0.00509525
-0.073286
-0.0836208
-0.0896012
-0.0920217
-0.0923934
-0.0916094
-0.0898482
-0.0870527
-0.083151
-0.0782653
-0.0724786
-0.0660394
-0.058957
-0.0515467
-0.0436612
-0.0358136
-0.0275698
-0.0198583
-0.0116337
-0.00467533
-0.0617169
-0.0714581
-0.0776202
-0.0807048
-0.0818312
-0.0817187
-0.0805536
-0.0783415
-0.0750497
-0.070807
-0.0656869
-0.0599298
-0.0535407
-0.0468351
-0.0396644
-0.0325396
-0.0250246
-0.0180416
-0.0105481
-0.00430912
-0.0518672
-0.0610755
-0.0673647
-0.071
-0.0727661
-0.0732286
-0.072576
-0.0708658
-0.0680987
-0.0644094
-0.059863
-0.0546926
-0.0488994
-0.042799
-0.0362412
-0.0297361
-0.0228452
-0.0164863
-0.00961842
-0.00399596
-0.0437018
-0.0524499
-0.0588264
-0.0629084
-0.0652033
-0.0661445
-0.0659198
-0.0646289
-0.0623004
-0.0590737
-0.055007
-0.050327
-0.0450317
-0.0394362
-0.0333898
-0.0274011
-0.0210301
-0.015191
-0.00884418
-0.00373544
-0.0371916
-0.0455635
-0.0519997
-0.0564324
-0.0591476
-0.0604713
-0.0605893
-0.0596342
-0.0576573
-0.0548017
-0.0511198
-0.0468331
-0.0419369
-0.0367459
-0.031109
-0.0255335
-0.0195787
-0.0141551
-0.00822504
-0.00352732
-0.032312
-0.0404033
-0.0468833
-0.0515777
-0.0546069
-0.0562162
-0.05659
-0.0558863
-0.0541731
-0.0515962
-0.0482034
-0.044212
-0.0396155
-0.0347281
-0.0293986
-0.024133
-0.0184905
-0.0133787
-0.0077612
-0.00337122
-0.0290156
-0.0369359
-0.0434586
-0.0483358
-0.0515781
-0.0533788
-0.053923
-0.0533866
-0.0518492
-0.0494582
-0.0462585
-0.0424642
-0.0380678
-0.0333825
-0.0282586
-0.0231988
-0.017766
-0.0128599
-0.00745495
-0.00326382
-0.0272794
-0.0351359
-0.0417035
-0.0466889
-0.0500484
-0.0519505
-0.0525832
-0.0521317
-0.0506841
-0.0483865
-0.0452854
-0.0415886
-0.037295
-0.0327075
-0.0276914
-0.0227275
-0.0174099
-0.0125915
-0.00731436
-0.00319169
-0.0615582
-0.110624
-0.153915
-0.19145
-0.223465
-0.250417
-0.273289
-0.293102
-0.310095
-0.334073
-0.0341774
-0.0813788
-0.12309
-0.159698
-0.191164
-0.21853
-0.241091
-0.262598
-0.278441
-0.302212
-0.00959782
-0.0544594
-0.094035
-0.129233
-0.159431
-0.186705
-0.208616
-0.230812
-0.246504
-0.268813
0.0123684
-0.0303079
-0.0680051
-0.102009
-0.13112
-0.158094
-0.179652
-0.201639
-0.218005
-0.239075
0.0319557
-0.00884584
-0.0450144
-0.0779931
-0.106287
-0.132749
-0.154161
-0.175515
-0.192297
-0.211847
0.0494069
0.0102683
-0.0245773
-0.0565296
-0.0840843
-0.109792
-0.130957
-0.151428
-0.168021
-0.186228
0.0649869
0.0273702
-0.00627037
-0.0371652
-0.0639714
-0.0887886
-0.10953
-0.129107
-0.145311
-0.162581
0.0789206
0.0427028
0.0101725
-0.0196846
-0.0457507
-0.069694
-0.0899545
-0.108803
-0.12462
-0.141081
0.0913792
0.0564353
0.0249219
-0.00396547
-0.029332
-0.052496
-0.0722857
-0.0905239
-0.105907
-0.12153
0.102494
0.0686962
0.0381084
0.0101033
-0.014612
-0.0370846
-0.0564049
-0.0740639
-0.0889777
-0.103786
0.112366
0.0795918
0.0498428
0.0226334
-0.00147476
-0.0233182
-0.0421742
-0.0592814
-0.0737574
-0.0878324
0.121076
0.0892109
0.0602188
0.0337248
0.0101782
-0.0110928
-0.0295165
-0.046126
-0.0602235
-0.0736476
0.128688
0.0976264
0.0693122
0.0434568
0.0204192
-0.000341041
-0.0183817
-0.0345557
-0.0483265
-0.0611767
0.135254
0.104898
0.0771832
0.0518906
0.0293043
0.00899153
-0.00871727
-0.0245146
-0.0380054
-0.0503631
0.140817
0.111077
0.0838826
0.0590771
0.036883
0.0169556
-0.000470687
-0.0159503
-0.0292103
-0.0411621
0.145402
0.1162
0.0894488
0.0650576
0.0431977
0.0235944
0.00640126
-0.00882182
-0.0219024
-0.0335355
0.149026
0.120278
0.0939041
0.0698621
0.0482805
0.0289404
0.0119306
-0.00309753
-0.0160506
-0.0274508
0.151702
0.12333
0.0972771
0.0735238
0.0521655
0.0330278
0.0161511
0.00125608
-0.0116227
-0.0228773
0.153439
0.125374
0.0995883
0.076069
0.0548874
0.0358989
0.0191117
0.00429427
-0.00855983
-0.0197565
0.154173
0.126332
0.100731
0.0773825
0.0563314
0.0374496
0.0207236
0.00595328
-0.00689586
-0.0180854
0.662526
0.664215
0.655719
0.637839
0.611566
0.575852
0.526479
0.456643
0.364264
0.29744
0.592031
0.58647
0.566242
0.538485
0.503828
0.458921
0.398243
0.314717
0.206593
0.127935
0.518077
0.503602
0.47385
0.437903
0.395233
0.34109
0.269457
0.173286
0.0507038
-0.0370614
0.434361
0.413399
0.378001
0.336361
0.286893
0.224306
0.142824
0.036013
-0.0994814
-0.19202
0.347051
0.320972
0.281625
0.235631
0.180498
0.110647
0.0206082
-0.0941634
-0.239548
-0.331161
0.261336
0.230579
0.18797
0.138353
0.0785244
0.00275818
-0.0944955
-0.216482
-0.360493
-0.452097
0.179328
0.144427
0.0993066
0.0469151
-0.0164883
-0.0965008
-0.198415
-0.323836
-0.463251
-0.55252
0.102151
0.063895
0.0172161
-0.0368783
-0.10251
-0.185014
-0.288593
-0.413664
-0.546498
-0.630517
0.0304545
-0.0100055
-0.0568706
-0.111747
-0.178562
-0.261429
-0.363949
-0.485131
-0.608257
-0.68526
-0.036598
-0.0761291
-0.122398
-0.17716
-0.24358
-0.324964
-0.423943
-0.537689
-0.647782
-0.717293
1.12152
1.1406
1.16264
1.18772
1.21577
1.24649
1.27897
1.31064
1.33805
1.36821
1.11488
1.13271
1.15379
1.17787
1.20468
1.23385
1.26444
1.29378
1.31836
1.34634
1.10132
1.1167
1.13591
1.15803
1.18238
1.20849
1.23531
1.25998
1.27914
1.30253
1.08042
1.09224
1.10874
1.12798
1.14873
1.17036
1.19164
1.20946
1.22066
1.23731
1.05162
1.05893
1.07199
1.08755
1.10366
1.11948
1.1336
1.14252
1.14336
1.15137
1.01436
1.01625
1.02523
1.03642
1.04702
1.05592
1.06146
1.05972
1.04801
1.0458
0.968345
0.964217
0.968743
0.975009
0.97924
0.980172
0.975888
0.961954
0.935812
0.922149
0.911934
0.901402
0.901861
0.903263
0.900712
0.892962
0.877943
0.850682
0.808642
0.782448
0.845755
0.829195
0.826296
0.822313
0.812179
0.795165
0.768889
0.727666
0.66895
0.62927
0.762236
0.747594
0.744065
0.734161
0.715695
0.688965
0.651
0.595389
0.519678
0.466171
1.00036
1.00101
1.00226
1.00402
1.00599
1.00809
1.01044
1.01313
1.01625
1.01988
1.02412
1.029
1.03463
1.0411
1.04855
1.0571
1.06689
1.07806
1.09078
1.10516
1.00031
1.00092
1.0021
1.00374
1.00556
1.00754
1.00975
1.0123
1.01527
1.01874
1.02277
1.02743
1.0328
1.03899
1.04611
1.05427
1.06361
1.07423
1.0863
1.09985
1.00025
1.00075
1.00172
1.0031
1.00467
1.00639
1.00834
1.01061
1.01327
1.01639
1.02002
1.02422
1.02909
1.0347
1.04114
1.04852
1.05692
1.06643
1.07713
1.08896
1.00015
1.00042
1.00106
1.00207
1.00327
1.00461
1.00615
1.00798
1.01017
1.01277
1.01578
1.01929
1.02337
1.02808
1.03348
1.03962
1.04656
1.05432
1.06291
1.07203
0.999998
0.999933
1.00012
1.00062
1.00131
1.00214
1.00314
1.00438
1.0059
1.00775
1.00993
1.0125
1.01551
1.01898
1.02292
1.02734
1.03224
1.03753
1.04314
1.04844
0.999774
0.999261
0.998875
0.998728
0.998755
0.998913
0.999219
0.999705
1.00041
1.00127
1.00238
1.00375
1.00536
1.00721
1.00925
1.01141
1.01364
1.01565
1.01737
1.01759
0.999474
0.998383
0.997303
0.996381
0.995604
0.994928
0.994345
0.993856
0.993473
0.993202
0.993029
0.992913
0.992812
0.992629
0.992293
0.991582
0.990401
0.988204
0.985013
0.978942
0.999086
0.997273
0.995381
0.993567
0.991868
0.990209
0.988552
0.986943
0.985327
0.983658
0.981904
0.979981
0.977807
0.975189
0.97201
0.967851
0.962623
0.955277
0.946114
0.931668
0.998619
0.995923
0.993091
0.99024
0.987445
0.984698
0.981937
0.979057
0.976012
0.972738
0.96917
0.965154
0.960576
0.955104
0.948631
0.940417
0.930601
0.917224
0.901474
0.876703
0.998085
0.994193
0.990308
0.986449
0.982554
0.978568
0.974431
0.970058
0.965378
0.960268
0.954626
0.948197
0.940835
0.931974
0.921525
0.908092
0.89213
0.869757
0.844322
0.803926
0.99758
0.992761
0.987947
0.983031
0.977942
0.97263
0.967044
0.961084
0.954646
0.947555
0.939664
0.930641
0.920286
0.907909
0.893318
0.874944
0.852835
0.822761
0.7851
0.726562
0.997115
0.991379
0.985612
0.979646
0.973416
0.966883
0.959992
0.952625
0.944657
0.935877
0.926126
0.91503
0.902385
0.887461
0.87006
0.84867
0.823237
0.790699
0.751787
0.702746
0.996646
0.990005
0.98329
0.976268
0.968899
0.961164
0.953007
0.944289
0.934872
0.924529
0.913094
0.900188
0.885612
0.868677
0.8492
0.825928
0.798886
0.766099
0.728315
0.682939
0.99616
0.98865
0.981011
0.972922
0.964392
0.955447
0.946031
0.93599
0.925173
0.913345
0.900341
0.885794
0.869519
0.850892
0.829779
0.805147
0.777145
0.744179
0.707083
0.663191
0.995666
0.987322
0.978801
0.969647
0.959948
0.949794
0.939146
0.92783
0.915685
0.902472
0.888036
0.872027
0.85429
0.834261
0.811872
0.786225
0.757578
0.724473
0.687968
0.64551
0.995175
0.98603
0.976676
0.966483
0.955624
0.944283
0.932443
0.919917
0.906529
0.892045
0.876319
0.859029
0.84005
0.818875
0.795492
0.769103
0.740048
0.707004
0.671166
0.630175
0.994686
0.98478
0.974658
0.963467
0.951475
0.938979
0.925997
0.912333
0.897796
0.882153
0.865276
0.84687
0.82684
0.804732
0.780577
0.753668
0.724393
0.691582
0.656424
0.616777
0.994203
0.983585
0.972767
0.960634
0.947548
0.933938
0.919873
0.905147
0.889554
0.872865
0.854966
0.835593
0.814676
0.791812
0.767061
0.739806
0.710443
0.677959
0.643449
0.605018
0.993729
0.982456
0.971024
0.95801
0.943877
0.929206
0.914122
0.898414
0.88186
0.864232
0.845431
0.825225
0.803561
0.780089
0.754881
0.727408
0.698049
0.665936
0.63204
0.594729
0.993271
0.981404
0.969439
0.955614
0.940491
0.924817
0.908785
0.892179
0.874757
0.856294
0.836701
0.815779
0.793489
0.76953
0.743975
0.71638
0.687084
0.655363
0.622051
0.585772
0.992834
0.980436
0.96802
0.953453
0.937407
0.9208
0.903896
0.886476
0.868276
0.849074
0.828792
0.807259
0.784446
0.7601
0.734284
0.706634
0.677441
0.646118
0.613355
0.578021
0.992423
0.979562
0.966765
0.951529
0.934634
0.917173
0.899479
0.881328
0.862438
0.842589
0.82171
0.79966
0.776413
0.751758
0.72575
0.698093
0.669029
0.638093
0.60584
0.571363
0.992041
0.97878
0.965661
0.949828
0.932175
0.913952
0.895552
0.876752
0.857254
0.836846
0.815456
0.79297
0.769364
0.744468
0.71832
0.690689
0.661765
0.631196
0.599407
0.565698
0.991688
0.978064
0.964658
0.94832
0.930028
0.911149
0.892127
0.872755
0.852732
0.831846
0.810024
0.787175
0.763275
0.73819
0.711943
0.684358
0.655576
0.625344
0.593971
0.560939
0.991382
0.977358
0.963668
0.946963
0.928197
0.908776
0.889209
0.869338
0.848868
0.827584
0.805405
0.782257
0.758119
0.732889
0.706573
0.679045
0.650399
0.620467
0.589458
0.55701
0.99113
0.976591
0.962616
0.945755
0.926713
0.906856
0.886806
0.866502
0.845663
0.824056
0.801586
0.778197
0.75387
0.72853
0.702168
0.674698
0.646176
0.616504
0.585805
0.553848
0.991086
0.97579
0.961572
0.944806
0.925652
0.905423
0.884938
0.864267
0.84313
0.821264
0.798562
0.77498
0.750506
0.725084
0.698693
0.671278
0.642863
0.613405
0.58296
0.551399
0.990888
0.97494
0.960695
0.944178
0.924939
0.904361
0.883532
0.862603
0.841253
0.819192
0.79631
0.772584
0.748002
0.722523
0.696115
0.668747
0.640418
0.61113
0.580885
0.549628
0.992057
0.976678
0.962201
0.944838
0.924723
0.903607
0.882539
0.861492
0.840022
0.817826
0.794815
0.77099
0.746337
0.720824
0.694407
0.667073
0.638807
0.60964
0.579546
0.548517
0.989145
0.977661
0.966741
0.948242
0.925872
0.903522
0.882126
0.86102
0.83948
0.817189
0.794094
0.770209
0.745517
0.719983
0.693561
0.666243
0.638009
0.608905
0.578899
0.54803
0.656401
0.582775
0.511752
0.434663
0.353286
0.273378
0.197034
0.124438
0.0560964
-0.00619228
0.647645
0.571458
0.497718
0.425737
0.350674
0.276163
0.205239
0.138023
0.0752674
0.0182192
0.632459
0.559932
0.486488
0.418942
0.350478
0.281301
0.214942
0.15234
0.0939537
0.0400168
0.616419
0.549335
0.477982
0.413284
0.350117
0.285969
0.223687
0.164908
0.11009
0.0592416
0.601523
0.539415
0.471246
0.408959
0.349967
0.290431
0.231916
0.176385
0.12463
0.0764396
0.588112
0.53022
0.46573
0.405865
0.35013
0.294562
0.239515
0.186848
0.137696
0.0918204
0.576159
0.521851
0.461092
0.403738
0.35064
0.298376
0.246455
0.196367
0.149453
0.105592
0.565606
0.514378
0.457157
0.402332
0.351473
0.30192
0.252745
0.204989
0.160037
0.117938
0.556367
0.507798
0.453812
0.401436
0.352549
0.305227
0.258413
0.212753
0.169544
0.128998
0.548338
0.502063
0.45097
0.400896
0.353775
0.308308
0.263496
0.219697
0.178047
0.138878
0.541407
0.497108
0.448563
0.400595
0.355064
0.311156
0.26803
0.225859
0.185602
0.14766
0.535471
0.49286
0.446526
0.400446
0.356338
0.313751
0.272037
0.231276
0.192256
0.155405
0.530433
0.489248
0.444806
0.400383
0.35753
0.316066
0.275534
0.235977
0.198045
0.162162
0.526209
0.486204
0.44335
0.40035
0.358589
0.318074
0.278524
0.239986
0.203003
0.167972
0.522724
0.483669
0.442114
0.400304
0.359467
0.319746
0.281004
0.243318
0.207148
0.172872
0.519913
0.481591
0.441064
0.400213
0.360131
0.321056
0.28297
0.245983
0.210486
0.176838
0.517721
0.479924
0.440166
0.40005
0.360556
0.321988
0.284421
0.247997
0.21306
0.179947
0.516105
0.478622
0.439379
0.399773
0.360704
0.322517
0.285353
0.249376
0.214902
0.182231
0.515063
0.477686
0.438674
0.399315
0.360482
0.322549
0.285684
0.250059
0.215966
0.183679
0.514648
0.47727
0.438246
0.398851
0.360009
0.322137
0.285413
0.24999
0.216126
0.184087
)
;

boundaryField
{
    bottom
    {
        type            symmetryPlane;
    }
    right
    {
        type            fixedValue;
        value           uniform 0;
    }
    top
    {
        type            symmetryPlane;
    }
    left
    {
        type            fixedValue;
        value           uniform 1;
    }
    cylinder
    {
        type            zeroGradient;
    }
    defaultFaces
    {
        type            empty;
    }
}


// ************************************************************************* //
