/*--------------------------------*- C++ -*----------------------------------*\
| =========                 |                                                 |
| \\      /  F ield         | OpenFOAM: The Open Source CFD Toolbox           |
|  \\    /   O peration     | Version:  4.1                                   |
|   \\  /    A nd           | Web:      www.OpenFOAM.org                      |
|    \\/     M anipulation  |                                                 |
\*---------------------------------------------------------------------------*/
FoamFile
{
    version     2.0;
    format      ascii;
    class       surfaceScalarField;
    location    "7";
    object      phi;
}
// * * * * * * * * * * * * * * * * * * * * * * * * * * * * * * * * * * * * * //

dimensions      [0 3 -1 0 0 0 0];

internalField   nonuniform List<scalar> 
3890
(
0.000389023
0.00218411
-0.00257313
0.00273275
-0.000288054
-0.00205567
0.00784045
-0.00738845
0.00228074
0.0160006
-0.0175914
0.00943116
0.0267248
-0.0291228
0.0183986
0.0389433
-0.04028
0.0280615
0.0514457
-0.0498818
0.0373794
0.0632875
-0.0574989
0.0456571
0.0737109
-0.0630011
0.0525776
-0.066551
0.0582703
0.0819917
0.000695837
0.00148827
0.00409707
-0.00368929
0.0109788
-0.0142702
0.0210561
-0.0276686
0.0330173
-0.041084
0.0452722
-0.0525349
0.056604
-0.0612137
0.066322
-0.0672169
0.0742383
-0.0709173
-0.0731918
0.080879
0.00112043
0.000367841
0.00580444
-0.0083733
0.0144423
-0.022908
0.0257521
-0.0389785
0.0376867
-0.0530186
0.0486245
-0.0634727
0.0577759
-0.070365
0.0650266
-0.0744676
0.0707665
-0.0766572
-0.0778572
0.075432
0.00165504
-0.0012872
0.00772803
-0.0144463
0.0176992
-0.0328792
0.0291698
-0.0504491
0.0398884
-0.0637373
0.0487314
-0.0723156
0.0555602
-0.0771938
0.0607697
-0.0796771
0.0649164
-0.0808039
-0.0813537
0.0684129
0.0022844
-0.0035716
0.0096371
-0.021799
0.0201545
-0.0433966
0.0307352
-0.0610298
0.0395557
-0.0725577
0.0462153
-0.0789752
0.0510964
-0.082075
0.0547968
-0.0833775
0.0578515
-0.0838586
-0.0841168
0.0606145
0.00297045
-0.00654204
0.0112275
-0.0300561
0.0213961
-0.0535651
0.0304057
-0.0700394
0.0371857
-0.0793378
0.0419433
-0.0837328
0.0453203
-0.085452
0.0479256
-0.0859827
0.0501894
-0.0861224
-0.0862135
0.0522861
0.00363838
-0.0101804
0.0122247
-0.0386424
0.0213354
-0.0626758
0.02851
-0.077214
0.0334111
-0.0842389
0.0366202
-0.086942
0.0388437
-0.0876754
0.0406007
-0.0877398
0.0421786
-0.0877003
-0.0877296
0.0436947
0.00418437
-0.0143648
0.0124755
-0.0469336
0.0201282
-0.0703285
0.0254854
-0.0825711
0.0287685
-0.087522
0.0307345
-0.088908
0.0320364
-0.0889774
0.0330678
-0.0887711
0.0340131
-0.0886456
-0.0886402
0.0349237
0.00451084
-0.0188756
0.0119876
-0.0544103
0.0180381
-0.076379
0.0217316
-0.0862646
0.0236549
-0.0894453
0.024601
-0.0898541
0.0251163
-0.0894927
0.0254784
-0.0891332
0.0257883
-0.0889555
-0.0889263
0.0260745
0.00456287
-0.0234385
0.0109047
-0.0607522
0.0153479
-0.0808222
0.0175684
-0.088485
0.0183452
-0.0902221
0.0184184
-0.0899273
0.0182171
-0.0892914
0.0179273
-0.0888434
0.0176058
-0.088634
0.017258
-0.0885786
-0.000968351
0.000968351
-0.00279754
0.00182919
-0.00500761
0.00221007
-0.00735767
0.00235006
-0.00971647
0.0023588
-0.0120087
0.00229224
-0.0141911
0.00218237
-0.0162433
0.00205224
-0.0181698
0.00192649
0.0018435
-0.0200133
-0.000846101
0.00181445
-0.00245925
0.00344235
-0.0044032
0.00415402
-0.00643695
0.00438381
-0.00842001
0.00434185
-0.0102631
0.0041353
-0.0119053
0.0038246
-0.013309
0.00345599
-0.014457
0.00307448
0.00276658
-0.0153801
-0.000632957
0.00244741
-0.00186812
0.00467751
-0.00333169
0.0056176
-0.00479341
0.00584552
-0.00610327
0.00565172
-0.00715307
0.00518509
-0.00785481
0.00452634
-0.0081414
0.00374258
-0.00797393
0.00290701
0.00206909
-0.00727645
-0.000387388
0.0028348
-0.00116009
0.00545021
-0.0020179
0.00647541
-0.00274694
0.00657456
-0.00319148
0.00609626
-0.00323075
0.00522436
-0.00275178
0.00404737
-0.00164085
0.00263165
0.000216997
0.00104916
-0.000475874
0.00276197
-0.000168161
0.00300296
-0.00048208
0.00576413
-0.000701444
0.00669478
-0.000627426
0.00650054
-9.86443e-05
0.00556748
0.00102646
0.00409926
0.00287064
0.00220319
0.00555309
-5.07945e-05
0.00915008
-0.00254783
-0.00537562
0.0140498
-1.69836e-05
0.00301994
6.26414e-05
0.0056845
0.000448831
0.00630859
0.00135231
0.00559706
0.00295792
0.00396187
0.00543047
0.0016267
0.00891545
-0.00128178
0.0135345
-0.00466987
0.0192417
-0.00825498
-0.0128002
0.0266663
5.67144e-05
0.00296323
0.000442947
0.00529827
0.00140988
0.00534165
0.00320166
0.00380528
0.00605586
0.00110768
0.0101837
-0.00250113
0.0157214
-0.00681949
0.0227358
-0.0116843
0.0309635
-0.0164826
-0.0228725
0.0410358
8.10832e-05
0.00288215
0.000748257
0.0046311
0.00234878
0.00374113
0.00521232
0.000941742
0.0096414
-0.00332141
0.0158323
-0.00869203
0.0238134
-0.0148006
0.0334263
-0.0212972
0.0442694
-0.0273257
-0.0349385
0.0563353
0.000109806
0.00277234
0.00113016
0.00361074
0.00356228
0.00130901
0.00784122
-0.0033372
0.0142543
-0.00973448
0.0228195
-0.0172573
0.0332496
-0.0252307
0.0450002
-0.0330477
0.0576626
-0.0399881
-0.0473313
0.0700554
0.000199206
0.00175428
0.00534403
0.011438
0.0201022
0.0309064
0.0430551
0.0556645
0.068254
0.079193
-0.0208326
0.000819321
-0.0214654
0.000632757
-0.0218753
0.000409952
-0.0220483
0.000172965
-0.021978
-7.03281e-05
-0.0216757
-0.000302298
-0.0211281
-0.000547563
-0.0203286
-0.000799559
-0.0192734
-0.00105515
-0.0179611
-0.00131236
-0.0163914
-0.00156966
-0.0145708
-0.00182058
-0.0125035
-0.00206732
-0.0101943
-0.00230926
-0.00764655
-0.0025477
-0.00485583
-0.00279072
-0.00181496
-0.00304087
0.00149985
-0.00331481
0.00509624
-0.00359638
-0.00380385
-0.0159335
0.00137272
-0.0163274
0.00102664
-0.0165212
0.000603802
-0.0164912
0.00014292
-0.0162622
-0.000299311
-0.0158101
-0.000754389
-0.015128
-0.0012297
-0.0142099
-0.00171767
-0.0130527
-0.00221228
-0.0116571
-0.00270797
-0.0100165
-0.0032103
-0.00814417
-0.00369286
-0.00604488
-0.00416661
-0.00372498
-0.00462916
-0.00119237
-0.00508031
0.00153697
-0.00552006
0.004466
-0.0059699
0.00759673
-0.00644554
0.0109223
-0.00692191
-0.00740708
-0.00733286
0.00142913
-0.0072834
0.000977185
-0.00707605
0.000396452
-0.00671158
-0.000221555
-0.00617407
-0.000836822
-0.00544258
-0.00148588
-0.00451231
-0.00215997
-0.00337723
-0.00285275
-0.00203236
-0.00355715
-0.000475668
-0.00426466
0.00126571
-0.00495168
0.00321085
-0.00563801
0.00535092
-0.00630668
0.00767338
-0.00695162
0.010164
-0.00757094
0.0128094
-0.00816542
0.0155839
-0.00874443
0.0184668
-0.00932839
0.0214388
-0.00989393
-0.010558
0.00338615
0.000804949
0.00400264
0.00036069
0.00470312
-0.000304026
0.00550497
-0.0010234
0.00645215
-0.001784
0.00754417
-0.00257791
0.00878925
-0.00340505
0.0101945
-0.00425804
0.0117634
-0.005126
0.0134945
-0.00599581
0.0153962
-0.00685337
0.017452
-0.00769374
0.019652
-0.00850668
0.0219816
-0.00928129
0.0244246
-0.0100139
0.0269585
-0.0106993
0.029557
-0.011343
0.0321839
-0.0119553
0.0348057
-0.0125158
-0.0131867
0.0152281
-0.000373319
0.0163979
-0.000809099
0.0176065
-0.00151266
0.0189074
-0.00232429
0.0203001
-0.0031767
0.0217893
-0.0040671
0.0233834
-0.0049992
0.0250894
-0.00596396
0.02691
-0.00694664
0.0288449
-0.00793074
0.0308925
-0.00890095
0.0330411
-0.00984238
0.0352781
-0.0107437
0.0375849
-0.0115881
0.0399446
-0.0123736
0.0423283
-0.013083
0.0447162
-0.0137309
0.0470616
-0.0143006
0.0493434
-0.0147976
-0.0153419
0.0283037
-0.00201079
0.0298802
-0.00238551
0.0314988
-0.00313133
0.0331798
-0.00400531
0.0349195
-0.00491637
0.0367225
-0.00587005
0.0385946
-0.00687129
0.040537
-0.00790638
0.042548
-0.00895762
0.0446224
-0.0100052
0.0467536
-0.0110321
0.0489273
-0.0120161
0.05113
-0.0129464
0.0533393
-0.0137974
0.0555408
-0.0145751
0.0577013
-0.0152435
0.059812
-0.0158416
0.0618194
-0.016308
0.0637355
-0.0167137
-0.0170541
0.0427867
-0.00376176
0.044523
-0.00412177
0.0463104
-0.00491876
0.0481447
-0.00583962
0.050027
-0.00679865
0.0519607
-0.00780376
0.0539417
-0.00885231
0.0559611
-0.00992573
0.0580097
-0.0110062
0.0600757
-0.0120712
0.062147
-0.0131034
0.0642055
-0.0140747
0.0662372
-0.0149781
0.0682185
-0.0157787
0.0701395
-0.0164961
0.0719685
-0.0170725
0.0737089
-0.0175821
0.0753088
-0.0179079
0.0768105
-0.0182154
-0.0183318
0.0578572
-0.00528367
0.0594986
-0.00576311
0.0611989
-0.00661913
0.0629416
-0.0075823
0.0647398
-0.00859686
0.0665879
-0.00965178
0.0684661
-0.0107305
0.0703552
-0.0118148
0.0722393
-0.0128904
0.0741014
-0.0139332
0.0759258
-0.0149278
0.0776945
-0.0158433
0.0793953
-0.0166788
0.0810097
-0.0173931
0.0825336
-0.01802
0.0839446
-0.0184835
0.0852539
-0.0188913
0.0864219
-0.0190759
0.0875032
-0.0192967
-0.0192285
0.0712553
-0.00648361
0.0727192
-0.00722694
0.0742217
-0.00812168
0.0757613
-0.00912191
0.0773471
-0.0101827
0.0789571
-0.0112617
0.0805646
-0.012338
0.0821496
-0.0133999
0.0836974
-0.0144381
0.0851939
-0.0154298
0.0866289
-0.0163628
0.0879917
-0.0172061
0.0892774
-0.0179646
0.0904783
-0.018594
0.0915958
-0.0191375
0.0926212
-0.019509
0.0935654
-0.0198354
0.0944068
-0.0199174
0.0951823
-0.0200721
-0.0198771
0.0807328
-0.00802342
0.082133
-0.00862721
0.0834817
-0.00947036
0.0847985
-0.0104387
0.0860907
-0.0114749
0.0873584
-0.0125293
0.0885966
-0.0135763
0.0897982
-0.0146015
0.0909581
-0.015598
0.0920726
-0.0165443
0.0931411
-0.0174313
0.0941624
-0.0182274
0.0951379
-0.0189401
0.0960677
-0.0195237
0.0969542
-0.0200241
0.0977981
-0.0203529
0.098601
-0.0206383
0.0993616
-0.020678
0.100077
-0.0207881
-0.0204841
0.109532
-0.00709986
-0.110456
0.109023
-0.00811809
0.108607
-0.0090544
0.108221
-0.0100523
0.107836
-0.0110898
0.107429
-0.0121225
0.10698
-0.0131278
0.106472
-0.0140928
0.105889
-0.015015
0.105222
-0.0158776
0.104469
-0.0166782
0.103631
-0.0173891
0.102713
-0.0180223
0.101724
-0.018535
0.100674
-0.0189736
0.0995755
-0.0192548
0.0984354
-0.0194982
0.0972755
-0.0195181
0.0960845
-0.0195971
-0.0192855
0.113954
-0.00645405
-0.1146
0.113383
-0.00754678
0.112882
-0.00855347
0.11237
-0.00954068
0.111813
-0.0105326
0.111203
-0.0115121
0.110536
-0.012461
0.109807
-0.0133641
0.109011
-0.0142187
0.108144
-0.0150109
0.107208
-0.0157416
0.106206
-0.016387
0.105144
-0.0169603
0.104031
-0.0174227
0.102876
-0.017818
0.10169
-0.0180695
0.100479
-0.0182873
0.099261
-0.0182996
0.0980314
-0.0183674
-0.0180981
0.116176
-0.0058326
-0.116798
0.115586
-0.0069561
0.115023
-0.00799093
0.114447
-0.00896443
0.113824
-0.00990928
0.113142
-0.0108301
0.112399
-0.0117183
0.111595
-0.0125598
0.110727
-0.0133511
0.109796
-0.01408
0.108804
-0.0147493
0.107756
-0.0153387
0.106657
-0.0158618
0.105518
-0.0162833
0.104344
-0.016644
0.103148
-0.0168742
0.101934
-0.0170734
0.100723
-0.0170883
0.0995081
-0.0171524
-0.0169107
0.117236
-0.00530984
-0.117758
0.116683
-0.0064031
0.116117
-0.00742552
0.115526
-0.00837328
0.114888
-0.00927114
0.114191
-0.0101331
0.113433
-0.0109601
0.112614
-0.0117413
0.111736
-0.0124731
0.110801
-0.0131442
0.10981
-0.0137585
0.108769
-0.0142981
0.107684
-0.014777
0.106564
-0.0151632
0.105415
-0.0154944
0.104248
-0.015707
0.103066
-0.0158918
0.101888
-0.0159102
0.100707
-0.0159714
-0.0157606
0.11776
-0.00487325
-0.118196
0.117263
-0.00590609
0.116727
-0.00688949
0.116151
-0.00779774
0.115526
-0.00864562
0.114842
-0.00944941
0.114098
-0.0102161
0.113295
-0.0109384
0.112435
-0.0116136
0.111522
-0.0122309
0.110558
-0.0127945
0.109549
-0.0132887
0.108499
-0.0137273
0.107417
-0.0140811
0.106308
-0.0143855
0.105183
-0.0145819
0.104044
-0.0147535
0.102908
-0.0147743
0.10177
-0.0148332
-0.0146485
0.118155
-0.00449779
-0.11853
0.117709
-0.00546054
0.117208
-0.00638794
0.116655
-0.00724523
0.116049
-0.00803961
0.115386
-0.00878607
0.114664
-0.00949413
0.113885
-0.0101595
0.113052
-0.0107804
0.112168
-0.0113468
0.111236
-0.0118629
0.110262
-0.0123147
0.109251
-0.0127157
0.108209
-0.013039
0.107141
-0.013318
0.106058
-0.0134986
0.104962
-0.0136574
0.103867
-0.0136792
0.102769
-0.0137354
-0.0135722
0.118607
-0.00416653
-0.118939
0.118199
-0.00505236
0.117725
-0.00591335
0.117192
-0.0067122
0.116602
-0.00745047
0.115957
-0.00814032
0.115254
-0.00879165
0.114497
-0.00940205
0.113687
-0.00997078
0.112829
-0.0104887
0.111926
-0.0109599
0.110983
-0.0113716
0.110004
-0.011737
0.108997
-0.0120315
0.107965
-0.0122862
0.106918
-0.0124513
0.105857
-0.0125973
0.104797
-0.0126189
0.103734
-0.0126718
-0.0125266
0.11916
-0.00386137
-0.119465
0.118774
-0.00466674
0.118317
-0.00545643
0.117798
-0.00619282
0.117221
-0.00687328
0.116587
-0.00750696
0.115899
-0.00810312
0.115157
-0.00866039
0.114365
-0.00917888
0.113527
-0.00965032
0.112646
-0.0100788
0.111727
-0.0104526
0.110774
-0.0107843
0.109794
-0.0110513
0.10879
-0.0112827
0.107771
-0.0114326
0.10674
-0.0115659
0.105707
-0.0115863
0.104671
-0.0116356
-0.0115057
0.119791
-0.00356668
-0.120086
0.119417
-0.00429272
0.118971
-0.00500986
0.11846
-0.00568191
0.11789
-0.00630353
0.117265
-0.00688134
0.116585
-0.00742355
0.115854
-0.0079293
0.115074
-0.00839928
0.11425
-0.00882607
0.113385
-0.00921366
0.112484
-0.00955123
0.11155
-0.00985074
0.11059
-0.0100915
0.109608
-0.0103005
0.108611
-0.0104357
0.107602
-0.0105566
0.106591
-0.0105753
0.105576
-0.0106205
-0.0105042
0.120468
-0.00327355
-0.120761
0.120098
-0.0039231
0.119656
-0.00456823
0.11915
-0.00517531
0.118584
-0.00573766
0.117962
-0.00625992
0.117288
-0.00674918
0.116564
-0.0072048
0.115792
-0.00762777
0.114977
-0.00801144
0.114123
-0.00835965
0.113235
-0.00866251
0.112315
-0.0089312
0.11137
-0.00914684
0.110404
-0.00933432
0.109424
-0.00945533
0.108431
-0.00956407
0.107437
-0.00958073
0.106438
-0.00962178
-0.00951774
0.121155
-0.0029775
-0.121451
0.120785
-0.00355316
0.120344
-0.00412749
0.119838
-0.00466986
0.119274
-0.00517303
0.118654
-0.0056402
0.117982
-0.0060774
0.117262
-0.00648408
0.116495
-0.00686132
0.115687
-0.00720319
0.114841
-0.00751331
0.113961
-0.00778272
0.113051
-0.00802172
0.112118
-0.00821322
0.111163
-0.00837994
0.110195
-0.00848723
0.109215
-0.0085841
0.108233
-0.00859867
0.107247
-0.00863547
-0.00854286
0.121826
-0.00267556
-0.122127
0.121452
-0.00317975
0.121009
-0.00368485
0.120503
-0.00416329
0.119938
-0.00460778
0.119318
-0.00502047
0.118647
-0.00540647
0.117928
-0.00576523
0.117165
-0.00609784
0.116361
-0.00639904
0.115519
-0.00667217
0.114646
-0.00690919
0.113744
-0.00711945
0.112818
-0.00728767
0.111872
-0.00743429
0.110914
-0.00752834
0.109943
-0.00761364
0.108971
-0.00762614
0.107994
-0.0076587
-0.00757696
0.122459
-0.00236581
-0.122769
0.122081
-0.00280101
0.121634
-0.00323858
0.121125
-0.00365414
0.120558
-0.00404068
0.119937
-0.00439961
0.119266
-0.00473522
0.118548
-0.00504698
0.117786
-0.00533592
0.116984
-0.00559741
0.116146
-0.00583447
0.115277
-0.00604001
0.11438
-0.00622233
0.11346
-0.006368
0.112521
-0.0064951
0.111569
-0.00657637
0.110606
-0.00665035
0.109641
-0.00666088
0.108671
-0.00668921
-0.00661801
0.12304
-0.00204743
-0.123358
0.122655
-0.00241605
0.122204
-0.00278779
0.121692
-0.00314158
0.121122
-0.003471
0.120499
-0.00377691
0.119827
-0.0040629
0.119109
-0.00432849
0.118347
-0.00457459
0.117547
-0.0047972
0.116712
-0.00499898
0.115845
-0.00517379
0.114952
-0.00532886
0.114036
-0.0054526
0.113102
-0.00556066
0.112155
-0.00562954
0.111197
-0.00569247
0.110238
-0.00570114
0.109274
-0.0057253
-0.00566442
0.123556
-0.00172048
-0.123883
0.123164
-0.00202469
0.122709
-0.00233218
0.122193
-0.00262529
0.12162
-0.00289838
0.120995
-0.00315202
0.120321
-0.00338912
0.119602
-0.00360927
0.118841
-0.00381323
0.118041
-0.00399768
0.117207
-0.00416482
0.116343
-0.00430955
0.115452
-0.00443793
0.114539
-0.00454027
0.113609
-0.00462968
0.112666
-0.00468655
0.111712
-0.00473863
0.110756
-0.00474559
0.109796
-0.00476561
-0.00471494
0.123997
-0.00138565
-0.124332
0.1236
-0.00162732
0.12314
-0.00187193
0.12262
-0.00210532
0.122044
-0.00232284
0.121417
-0.00252488
0.120742
-0.00271373
0.120022
-0.00288907
0.11926
-0.0030515
0.11846
-0.00319836
0.117627
-0.00333141
0.116764
-0.00344659
0.115875
-0.00354872
0.114965
-0.0036301
0.114036
-0.0037012
0.113096
-0.00374636
0.112145
-0.00378776
0.111193
-0.00379316
0.110236
-0.00380909
-0.00376856
0.124358
-0.00104408
-0.124699
0.123955
-0.00122474
0.123491
-0.00140757
0.122968
-0.00158204
0.122389
-0.00174463
0.12176
-0.00189564
0.121083
-0.00203678
0.120362
-0.00216785
0.1196
-0.00228922
0.1188
-0.00239899
0.117967
-0.00249836
0.117105
-0.00258442
0.116217
-0.00266064
0.115308
-0.00272145
0.114382
-0.00277446
0.113443
-0.0028082
0.112495
-0.00283901
0.111545
-0.00284303
0.11059
-0.00285489
-0.00282448
0.124631
-0.000697415
-0.124978
0.124225
-0.000818126
0.123757
-0.000939974
0.123231
-0.00105608
0.122651
-0.00116421
0.12202
-0.00126467
0.121342
-0.00135853
0.12062
-0.00144573
0.119857
-0.00152643
0.119057
-0.00159947
0.118224
-0.00166547
0.117363
-0.00172276
0.116475
-0.0017733
0.115568
-0.00181385
0.114642
-0.00184889
0.113705
-0.00187151
0.112758
-0.00189173
0.11181
-0.00189457
0.110857
-0.00190227
-0.00188207
0.124814
-0.000347775
-0.125164
0.124405
-0.000409199
0.123936
-0.000470403
0.123408
-0.000528413
0.122826
-0.00058234
0.122194
-0.000632509
0.121515
-0.000679369
0.120792
-0.000723008
0.120029
-0.000763252
0.119229
-0.000799833
0.118396
-0.000832629
0.117535
-0.000861433
0.116648
-0.00088636
0.115741
-0.000907014
0.114816
-0.000923912
0.113881
-0.000935999
0.112934
-0.000944983
0.111987
-0.000947883
0.111035
-0.000949806
-0.000941463
0.124903
-0.125251
0.124494
0.124024
0.123495
0.122913
0.122281
0.121601
0.120878
0.120115
0.119315
0.118483
0.117621
0.116735
0.115828
0.114904
0.113968
0.113023
0.112075
0.111125
0.0903378
0.0156091
-0.0886888
0.0922333
0.024179
0.0943985
0.0327584
0.0968213
0.0412718
0.0995252
0.0495823
0.102513
0.0576264
0.105451
0.0654757
0.108755
0.0721278
0.109855
0.0797789
0.0813907
0.0904593
0.0141014
-0.0889516
0.0922604
0.0223778
0.0943698
0.0306491
0.0968223
0.0388193
0.0995048
0.0468998
0.102698
0.0544336
0.10577
0.0624034
0.109591
0.0683067
0.112777
0.0765924
0.079568
0.090756
0.0127558
-0.0894103
0.092443
0.0206907
0.0944321
0.02866
0.0968473
0.0364042
0.0994608
0.0442862
0.102638
0.0512568
0.105892
0.0591491
0.109555
0.0646433
0.113688
0.07246
0.076458
0.0911773
0.0115482
-0.0899698
0.0927625
0.0191056
0.0946474
0.0267751
0.0969794
0.0340722
0.0995701
0.0416955
0.10261
0.0482171
0.106025
0.0557341
0.109533
0.0611347
0.113871
0.0681228
0.0725702
0.0916855
0.0104485
-0.0905857
0.0931805
0.0176106
0.0950065
0.0249491
0.0972476
0.0318311
0.0998528
0.0390903
0.102774
0.0452955
0.106243
0.0522652
0.109755
0.0576229
0.113997
0.0638812
0.0683707
0.092248
0.00943229
-0.0912318
0.0936618
0.0161967
0.0954567
0.0231542
0.0976285
0.0296593
0.100243
0.0364755
0.103121
0.0424182
0.106559
0.0488268
0.110129
0.0540531
0.114245
0.0597649
0.0640855
0.092837
0.00848537
-0.0918901
0.0941819
0.0148519
0.0959508
0.0213852
0.0980831
0.027527
0.100688
0.0338707
0.103572
0.039534
0.106961
0.0454379
0.11058
0.0504345
0.114636
0.0557083
0.0597832
0.0934313
0.0076007
-0.0925467
0.0947215
0.0135617
0.0964617
0.0196451
0.0985773
0.0254114
0.101164
0.0312843
0.104073
0.0366244
0.107438
0.0420735
0.111096
0.0467764
0.11515
0.0516538
0.0554687
0.0940161
0.00677385
-0.0931893
0.095264
0.0123138
0.0969749
0.0179342
0.0990855
0.0233008
0.101659
0.0287106
0.104597
0.0336869
0.107966
0.0387037
0.111662
0.0430805
0.115744
0.0475723
0.0511264
0.0945807
0.00600001
-0.0938069
0.0957948
0.0110997
0.0974801
0.0162489
0.0995901
0.0211908
0.102161
0.0261398
0.105124
0.0307237
0.108516
0.0353121
0.112251
0.0393456
0.116373
0.0434503
0.0467383
0.0951167
0.00527348
-0.0943901
0.0963024
0.00991392
0.0979674
0.0145839
0.100078
0.0190803
0.102653
0.0235647
0.10564
0.0277367
0.10906
0.0318923
0.112836
0.0355693
0.117005
0.0392814
0.0422926
0.0956167
0.00458829
-0.0949315
0.096778
0.00875261
0.0984275
0.0129344
0.100539
0.0169687
0.103122
0.0209816
0.106132
0.0247268
0.109582
0.0284427
0.113401
0.0317499
0.117619
0.0350633
0.0377844
0.0960746
0.00393873
-0.095425
0.0972146
0.00761255
0.0988524
0.0112966
0.100966
0.0148554
0.103559
0.0183886
0.106591
0.0216946
0.11007
0.0249632
0.113932
0.0278879
0.118198
0.0307973
0.0332137
0.0964853
0.00331955
-0.0958661
0.0976071
0.00649074
0.0992358
0.00966782
0.101351
0.0127399
0.103955
0.0157854
0.107008
0.0186409
0.110516
0.0214556
0.114418
0.0239857
0.118729
0.0264866
0.0285842
0.0968446
0.00272642
-0.0962515
0.0979512
0.00538418
0.099573
0.00804603
0.101691
0.0106219
0.104304
0.0131721
0.107378
0.0155675
0.110911
0.0179222
0.11485
0.0200471
0.1192
0.0221357
0.0239018
0.0971498
0.0021529
-0.0965763
0.0982435
0.00429049
0.0998597
0.00642981
0.10198
0.00850113
0.104603
0.0105498
0.107694
0.0124766
0.111249
0.0143665
0.115219
0.0160771
0.119605
0.0177504
0.0191743
0.0973979
0.00159681
-0.0968418
0.0984812
0.00320722
0.100093
0.00481789
0.102216
0.00637796
0.104846
0.00791965
0.107952
0.00937118
0.111526
0.0107921
0.115522
0.0120811
0.119936
0.013337
0.0144107
0.097587
0.00105518
-0.0970453
0.0986618
0.00213234
0.10027
0.00320934
0.102395
0.00425287
0.105032
0.00528339
0.108149
0.00625425
0.111738
0.00720313
0.115754
0.00806519
0.120188
0.00890255
0.00962049
0.0977138
0.000525955
-0.0971845
0.0987825
0.00106366
0.100388
0.00160357
0.102515
0.00212659
0.105155
0.00264286
0.10828
0.0031292
0.111879
0.00360417
0.115909
0.00403572
0.120357
0.00445427
0.0048135
0.0977777
-0.0972517
0.0988413
0.100445
0.102572
0.105214
0.108344
0.111948
0.115983
0.120438
0.0435301
0.058815
-0.0538105
-0.0485346
0.038143
0.0590365
-0.0536494
0.032795
0.0596273
-0.0542793
0.0274811
0.0606515
-0.0553377
0.0221669
0.0620569
-0.0567427
0.016832
0.0638955
-0.0585605
0.0114861
0.0661476
-0.0608017
0.00631858
0.0676881
-0.0625206
0.00200856
0.0631839
-0.0588739
0.0378727
-0.0358642
0.0399239
0.0639962
-0.0451051
0.0347899
0.0641704
0.0297247
0.0646925
0.0247244
0.0656518
0.0197435
0.0670378
0.0147505
0.0688886
0.00978156
0.0711165
0.00508947
0.0723802
0.0014022
0.0668711
0.0392749
0.0358974
0.0688158
-0.0407171
0.0310645
0.0690033
0.0262859
0.0694711
0.021588
0.0703497
0.0169421
0.0716837
0.012319
0.0735116
0.00778575
0.0756498
0.00366471
0.0765012
0.000689323
0.0698465
0.0399642
0.0311611
0.073223
-0.0355682
0.0267399
0.0734245
0.0223435
0.0738675
0.0180181
0.0746751
0.0137597
0.0759422
0.00955444
0.0777168
0.00549767
0.0797066
0.00204006
0.0799588
-0.000130039
0.0720166
0.0398342
0.0257496
0.0771957
-0.0297223
0.0217821
0.077392
0.0178445
0.077805
0.0139713
0.0785484
0.0101684
0.0797451
0.00644816
0.0814371
0.00293552
0.0832192
6.57131e-05
0.0828286
-0.000869499
0.0729518
0.0389647
0.0196849
0.0806752
-0.0231644
0.0162309
0.0808459
0.0128149
0.0812211
0.00946058
0.0819027
0.00618171
0.0830239
0.00302857
0.0845902
0.000223072
0.0860247
-0.00161888
0.0846706
-0.00166127
0.0729942
0.0373034
0.0130516
0.0835814
-0.0159577
0.0101674
0.0837301
0.00732024
0.0840683
0.00453636
0.0846865
0.0018416
0.0857187
-0.00068481
0.0871167
-0.00271514
0.088055
-0.00357164
0.0855271
-0.00245533
0.0718779
0.0348481
0.00592309
0.0858738
-0.00821556
0.00364
0.0860132
0.00141651
0.0862918
-0.000755272
0.0868583
-0.0028466
0.08781
-0.0046812
0.0889513
-0.00585269
0.0892265
-0.00559139
0.0852658
-0.00321172
0.0694983
0.0316364
-0.00162039
0.0876568
-0.000162603
-0.00326966
0.0876624
-0.00487111
0.0878932
-0.00641814
0.0884053
-0.00783106
0.0892229
-0.00889596
0.0900162
-0.00908686
0.0894174
-0.00756418
0.0837431
-0.00386308
0.0657972
0.0277733
-0.00951506
0.00859327
-0.0104866
-0.0114368
-0.0123228
-0.0130272
-0.0132331
-0.0123007
-0.00937978
-0.0043348
0.0497386
0.00471177
-0.0544503
0.0448565
0.00488209
0.0397776
0.00507885
0.0344792
0.00529845
0.02893
0.00554921
0.0230875
0.00584247
0.0169021
0.00618538
0.0103935
0.00650864
0.00405706
0.00633641
0.00405706
0.0498869
0.00948749
-0.0546626
0.0449504
0.00981861
0.0398273
0.0102019
0.034495
0.0106308
0.0289218
0.0111224
0.0230648
0.0116995
0.0168723
0.0123779
0.0103627
0.0130183
0.00404609
0.012653
0.00810315
0.0501423
0.0143831
-0.0550379
0.0451039
0.014857
0.0398982
0.0154076
0.034502
0.016027
0.0288834
0.0167411
0.0229986
0.0175843
0.0167964
0.01858
0.0102974
0.0195173
0.0040076
0.0189428
0.0121107
0.0504257
0.0194346
-0.0554772
0.0452548
0.0200278
0.0399415
0.0207209
0.0344626
0.0215058
0.0287864
0.0224173
0.0228691
0.0235016
0.0166598
0.0247893
0.0101823
0.0259948
0.0039442
0.0251809
0.0160549
0.0506309
0.0246565
-0.0558528
0.0453138
0.025345
0.0398824
0.0261523
0.0343168
0.0270714
0.0285848
0.0281493
0.0226418
0.0294446
0.0164376
0.0309935
0.0100019
0.0324305
0.00384714
0.0313356
0.0199021
0.0506595
0.0300251
-0.0560281
0.045207
0.0307975
0.0396616
0.0316976
0.0340141
0.0327189
0.0282358
0.0339276
0.0222813
0.0353991
0.0161023
0.0371725
0.00973797
0.0387948
0.00370804
0.0373655
0.0236101
0.0503384
0.0355349
-0.0558482
0.0447584
0.0363775
0.0391258
0.0373302
0.0334352
0.0384095
0.0276493
0.0397134
0.0217209
0.0413276
0.0156067
0.0432866
0.00936192
0.0450396
0.00352012
0.0432073
0.0271303
0.0497787
0.0411421
-0.0553859
0.0440636
0.0420926
0.0383545
0.0430393
0.0326359
0.0441281
0.0268544
0.0454949
0.020967
0.047215
0.0149429
0.0493107
0.00885945
0.0511231
0.00327406
0.0487927
0.0304043
0.0482937
0.047045
-0.0541966
0.0425062
0.04788
0.0368928
0.0486527
0.0312939
0.0497271
0.0256366
0.0511522
0.0198913
0.0529603
0.0140402
0.0551618
0.00819179
0.0569715
0.00294024
0.0540443
0.0333445
0.0467354
-0.0535009
0.0409661
0.0353395
0.0297289
0.0241384
0.0185382
0.0128983
0.0073492
0.00251961
0.0592435
-0.000233873
0.0594794
-0.000235919
0.0597107
-0.000231243
0.0599299
-0.000219271
0.0601304
-0.000200432
0.0603058
-0.000175389
0.0604496
-0.000143898
0.0605547
-0.0001051
0.0606123
-5.753e-05
0.06061
2.3047e-06
0.0605463
6.3633e-05
0.0604074
0.000138948
0.0601798
0.000227635
0.0598483
0.000331418
0.0593958
0.00045251
0.0588016
0.000594187
0.0580429
0.000758723
0.0570889
0.000953983
0.0559161
0.00117285
0.00146576
0.0597781
-0.000468346
0.0600069
-0.000464757
0.0602271
-0.000451364
0.0604335
-0.000425683
0.0606205
-0.000387469
0.0607821
-0.000337012
0.0609118
-0.000273525
0.0610019
-0.000195272
0.0610437
-9.92699e-05
0.0610281
1.79046e-05
0.0609485
0.000143235
0.0607928
0.000294665
0.0605476
0.000472783
0.0601978
0.000681179
0.0597262
0.000924202
0.0591117
0.00120861
0.0583318
0.00153862
0.0573547
0.00193109
0.056158
0.00236955
0.0029612
0.0608302
-0.000670573
0.061033
-0.000667528
0.061227
-0.000645372
0.0614066
-0.000605234
0.0615658
-0.000546717
0.0616987
-0.000469898
0.0617986
-0.000373434
0.0618579
-0.000254594
0.0618674
-0.00010873
0.0618218
6.34519e-05
0.0617094
0.000255683
0.0615191
0.00048497
0.0612378
0.000754045
0.0608503
0.0010687
0.0603392
0.00143526
0.0596834
0.0018645
0.0588603
0.00236166
0.0578363
0.00295513
0.0565922
0.00361361
0.00451552
0.0623534
-0.00083017
0.0625119
-0.000826021
0.062661
-0.000794416
0.0627949
-0.000739127
0.0629076
-0.000659496
0.0629931
-0.00055541
0.0630447
-0.00042501
0.0630544
-0.000264239
0.0630117
-6.61023e-05
0.0629163
0.000158883
0.0627509
0.000421076
0.0625053
0.000730595
0.0621667
0.00109268
0.0617195
0.0015159
0.0611465
0.00200818
0.0604257
0.00258538
0.0595355
0.00325179
0.0584386
0.0040521
0.0571219
0.00493027
0.00616023
0.0642852
-0.000924612
0.0643773
-0.000918139
0.0644588
-0.000875884
0.064524
-0.000804415
0.0645671
-0.000702576
0.0645818
-0.000570047
0.0645615
-0.00040471
0.0644979
-0.000200666
0.064383
4.87788e-05
0.0642122
0.000329659
0.0639693
0.000663974
0.0636439
0.00105605
0.0632232
0.00151335
0.0626912
0.00204793
0.0620311
0.00266826
0.061219
0.00339745
0.0602359
0.00423491
0.0590382
0.00524978
0.0576225
0.00634598
0.00792999
0.0665491
-0.000928061
0.066548
-0.000916987
0.0665349
-0.000862841
0.0665047
-0.000774161
0.0664511
-0.000648991
0.0663676
-0.000486577
0.0662474
-0.000284522
0.0660819
-3.51269e-05
0.0658711
0.000259581
0.0655944
0.000606357
0.0652455
0.00101286
0.0648122
0.00148938
0.0642817
0.0020438
0.0636368
0.00269278
0.062862
0.00344307
0.06193
0.00432946
0.0608257
0.00533924
0.0594964
0.00657906
0.0579528
0.0078896
0.00985471
0.0690652
-0.000809633
0.0689387
-0.000790515
0.0687988
-0.000722927
0.068641
-0.000616309
0.0684597
-0.000467739
0.0682479
-0.000274744
0.0680008
-3.74633e-05
0.0677066
0.000259117
0.0673584
0.000607755
0.0669461
0.00101861
0.0664604
0.00149863
0.0658881
0.00206171
0.0652174
0.00271447
0.0644292
0.00348098
0.0635112
0.00436109
0.0624312
0.00540943
0.0611822
0.00658823
0.0596947
0.00806654
0.0579846
0.0095997
0.0119911
0.0717578
-0.000535465
0.0714707
-0.0005034
0.0711675
-0.000419746
0.0708449
-0.000293756
0.0705017
-0.000124515
0.0701299
9.70557e-05
0.069713
0.000379413
0.0692538
0.000718364
0.0687405
0.00112108
0.0681617
0.00159738
0.0675077
0.0021526
0.066764
0.00280544
0.0659209
0.00355759
0.0649554
0.00444641
0.0638615
0.00545499
0.0625979
0.00667311
0.0611774
0.00800872
0.0595076
0.00973632
0.0576692
0.0114381
0.0142745
0.0745672
-6.17784e-05
0.0740792
-1.54034e-05
0.0735757
8.37576e-05
0.0730531
0.000228878
0.0725045
0.000424089
0.0719239
0.000677617
0.0713097
0.000993624
0.07065
0.00137807
0.0699361
0.00183494
0.069156
0.00237748
0.0683007
0.00300793
0.0673533
0.00375288
0.0663075
0.00460338
0.065134
0.00561992
0.0638376
0.00675139
0.0623529
0.00815773
0.0607253
0.0096364
0.0587869
0.0116747
0.0567525
0.0134725
0.0168304
0.0774827
0.000699148
0.0767268
0.000740467
0.0759686
0.000841978
0.0751993
0.000998115
0.0744105
0.00121295
0.0735948
0.00149333
0.0727447
0.00184366
0.0718502
0.00227256
0.0709027
0.00278242
0.0698899
0.00339033
0.0688044
0.00409343
0.0676282
0.00492904
0.0663615
0.00587005
0.0649719
0.00700952
0.0634895
0.00823387
0.061835
0.00981218
0.0601473
0.0113241
0.0581501
0.0136719
0.0563238
0.0152988
0.0196533
0.0743498
0.000692525
0.0743432
0.000747115
0.0743373
0.000847858
0.0743328
0.00100259
0.0743296
0.00121618
0.0743282
0.00149475
0.0743309
0.00184089
0.0743398
0.00226375
0.0743595
0.00276263
0.0743928
0.0033571
0.0744511
0.00403512
0.0745361
0.00484408
0.0746762
0.00572987
0.0748629
0.00682289
0.0751706
0.0079261
0.0755463
0.00943648
0.0762004
0.0106701
0.0769854
0.0128868
0.0785831
0.0137011
0.0170983
0.0811381
0.0772866
0.000696595
0.0772838
0.000749855
0.0772859
0.000845736
0.077293
0.000995546