/*--------------------------------*- C++ -*----------------------------------*\
| =========                 |                                                 |
| \\      /  F ield         | OpenFOAM: The Open Source CFD Toolbox           |
|  \\    /   O peration     | Version:  4.1                                   |
|   \\  /    A nd           | Web:      www.OpenFOAM.org                      |
|    \\/     M anipulation  |                                                 |
\*---------------------------------------------------------------------------*/
FoamFile
{
    version     2.0;
    format      ascii;
    class       volVectorField;
    location    "7";
    object      U;
}
// * * * * * * * * * * * * * * * * * * * * * * * * * * * * * * * * * * * * * //

dimensions      [0 1 -1 0 0 0 0];

internalField   nonuniform List<vector> 
2000
(
(-0.0368412 0.0322259 5.61518e-20)
(-0.00121026 0.0313559 0)
(0.129615 0.00906229 9.07529e-20)
(0.337194 -0.0203491 4.08411e-20)
(0.595103 -0.0471456 -7.60687e-20)
(0.867332 -0.0675866 -1.02704e-19)
(1.12192 -0.0803195 3.25539e-20)
(1.33448 -0.0918889 0)
(1.51071 -0.0915223 -2.57174e-20)
(1.61167 -0.110413 0)
(-0.0300851 0.024096 -2.7845e-20)
(0.0493345 0.00730609 2.4898e-20)
(0.249291 -0.020628 -9.53877e-20)
(0.532131 -0.0460329 -1.28049e-19)
(0.844751 -0.062133 -9.04928e-22)
(1.1358 -0.0694621 3.38145e-20)
(1.37376 -0.0712625 -3.19682e-20)
(1.54973 -0.0724021 -2.79416e-20)
(1.66797 -0.0696158 2.57169e-20)
(1.72727 -0.0808925 4.34511e-20)
(-0.0156879 0.0139755 2.98397e-20)
(0.125866 -0.0176888 -2.79496e-20)
(0.409822 -0.0440762 4.79612e-20)
(0.762148 -0.0571783 -1.62544e-21)
(1.10073 -0.0582434 3.89394e-20)
(1.37395 -0.0533157 3.49991e-20)
(1.56739 -0.0475404 3.13323e-20)
(1.68924 -0.0448548 2.79416e-20)
(1.75748 -0.0424441 2.37161e-20)
(1.79437 -0.051386 -2.08155e-20)
(0.00892514 0.0022918 -7.41919e-22)
(0.232491 -0.0399577 -2.96414e-20)
(0.605575 -0.054824 0)
(1.00288 -0.0497811 4.27231e-20)
(1.33027 -0.0368006 -4.14927e-20)
(1.5576 -0.0244284 0)
(1.69542 -0.0165918 0)
(1.76896 -0.0141788 0)
(1.80485 -0.0137938 -2.37175e-20)
(1.81532 -0.0224528 3.98402e-20)
(0.0462534 -0.0096696 6.94579e-20)
(0.3698 -0.0536882 2.58349e-23)
(0.820581 -0.0476128 2.76823e-20)
(1.22681 -0.0242354 2.25215e-20)
(1.5132 -0.00244475 2.04417e-20)
(1.68384 0.0116209 1.731e-20)
(1.77168 0.0176811 0)
(1.81066 0.0178334 1.23805e-20)
(1.82432 0.0150385 -5.20241e-20)
(1.82887 0.00594288 6.79078e-20)
(0.0981601 -0.0196483 -1.08562e-19)
(0.532277 -0.0524293 1.9922e-21)
(1.03297 -0.020891 -5.48984e-20)
(1.4149 0.0159558 4.92986e-20)
(1.64593 0.0402945 -5.9193e-20)
(1.76308 0.0517587 1.90701e-20)
(1.81252 0.053975 0)
(1.82854 0.0507131 -1.23815e-20)
(1.83191 0.0447373 1.04979e-20)
(1.83115 0.0357358 3.10616e-20)
(0.165101 -0.0245667 0)
(0.707687 -0.0316736 0)
(1.22395 0.0234246 -2.79111e-20)
(1.56029 0.0668123 2.5983e-20)
(1.73448 0.0884671 -1.89112e-20)
(1.80737 0.0945674 1.77552e-20)
(1.82978 0.0917674 2.52286e-20)
(1.83251 0.0846386 -2.38472e-20)
(1.83009 0.0756175 -1.69797e-20)
(1.82837 0.065947 8.14442e-21)
(0.245274 -0.0211385 2.09042e-20)
(0.880325 0.00939178 0)
(1.38271 0.0819072 -1.31405e-20)
(1.66421 0.125074 4.88677e-20)
(1.78715 0.140167 -3.06798e-20)
(1.82633 0.139241 0)
(1.83119 0.130897 0)
(1.82652 0.119647 0)
(1.82208 0.107674 -1.44752e-20)
(1.81988 0.097069 1.37596e-20)
(0.334324 -0.00670287 -1.06972e-20)
(1.03621 0.068288 -3.86644e-22)
(1.50517 0.15084 -1.49979e-20)
(1.73113 0.188192 5.74453e-21)
(1.81142 0.194052 5.47799e-21)
(1.82655 0.185215 7.87283e-21)
(1.82078 0.171059 0)
(1.81271 0.155563 -1.88497e-21)
(1.80763 0.140705 -7.14186e-21)
(1.80566 0.128244 5.46577e-21)
(0.425937 0.0201278 0)
(1.16619 0.140929 -9.173e-21)
(1.5912 0.22664 0)
(1.76612 0.254089 -3.23308e-21)
(1.81306 0.249025 -2.98886e-21)
(1.81206 0.231843 -3.51663e-21)
(1.80051 0.21173 0)
(1.79134 0.191852 1.88515e-21)
(1.78677 0.174002 1.39139e-21)
(1.78548 0.159102 6.51981e-22)
(-0.0100823 0.00951384 0)
(-0.0393995 0.0171683 -5.10918e-21)
(-0.0800002 0.0194707 0)
(-0.118355 0.0194314 -6.69117e-21)
(-0.151916 0.0182899 -2.1135e-21)
(-0.180456 0.01663 3.94416e-21)
(-0.204057 0.0147744 -3.71443e-21)
(-0.223046 0.0129456 3.5273e-21)
(-0.238065 0.0113633 2.51047e-23)
(-0.250428 0.010286 3.13906e-21)
(-0.01164 0.0272658 -1.61989e-20)
(-0.0399868 0.0495356 1.0123e-20)
(-0.0769036 0.0564207 -9.57908e-21)
(-0.110612 0.0563463 4.43764e-21)
(-0.138923 0.0528976 2.10303e-20)
(-0.16159 0.047789 -7.89379e-21)
(-0.178636 0.0419741 0)
(-0.190241 0.0361531 -3.51543e-21)
(-0.1967 0.031023 -3.31919e-21)
(-0.199599 0.0273949 0)
(-0.0144774 0.0414708 1.08055e-20)
(-0.0412489 0.0763616 0)
(-0.0715378 0.087606 2.8936e-20)
(-0.0967519 0.0875705 -3.61564e-20)
(-0.115377 0.0817982 8.5121e-21)
(-0.127251 0.0729975 0)
(-0.13236 0.0626601 0)
(-0.130798 0.0519669 0)
(-0.122333 0.042139 2.69482e-20)
(-0.107618 0.0345407 -2.56112e-20)
(-0.0180903 0.0507616 0)
(-0.0432529 0.0951063 -2.11596e-20)
(-0.0651728 0.10997 3.92968e-20)
(-0.079192 0.109891 -1.83359e-20)
(-0.0847812 0.101802 1.7321e-20)
(-0.0820406 0.0891821 -4.89019e-20)
(-0.0709706 0.0738319 -3.51181e-23)
(-0.0518499 0.0571037 2.91009e-20)
(-0.0250079 0.0405858 2.72659e-20)
(0.013898 0.0286652 -3.88246e-20)
(-0.0219979 0.0549929 2.26838e-20)
(-0.0459415 0.104666 -4.3315e-20)
(-0.0588503 0.121612 -1.45842e-22)
(-0.0599569 0.120936 1.52536e-22)
(-0.0498693 0.110378 1.74894e-20)
(-0.0291072 0.0939177 -4.9545e-20)
(0.0021531 0.07355 0)
(0.0435104 0.0504996 -1.47491e-20)
(0.0944612 0.026555 1.38958e-20)
(0.164492 0.00822493 -5.23114e-20)
(-0.0259192 0.0550533 -2.83206e-22)
(-0.0489638 0.105409 4.38172e-20)
(-0.0525762 0.122017 2.01786e-20)
(-0.0391646 0.119417 1.92794e-20)
(-0.0103929 0.105716 1.76206e-20)
(0.032917 0.0852477 1.658e-20)
(0.090392 0.0603041 0)
(0.161559 0.0322732 1.47477e-20)
(0.240558 0.00175861 4.11747e-20)
(0.355373 -0.0245221 -1.36432e-20)
(-0.0297934 0.0523867 6.47536e-23)
(-0.051433 0.0988893 2.25257e-20)
(-0.0444503 0.112033 0)
(-0.0134714 0.105465 -3.78029e-20)
(0.0392823 0.0874185 3.57631e-20)
(0.1126 0.062502 0)
(0.20523 0.0333368 0)
(0.317002 0.0025614 0)
(0.428408 -0.0317989 -2.79235e-20)
(0.600802 -0.0618915 -5.22208e-20)
(-0.0335301 0.0483717 -2.4607e-20)
(-0.0515629 0.0870593 2.305e-20)
(-0.0300005 0.0935256 4.24251e-20)
(0.0251161 0.0808802 4.99689e-22)
(0.11121 0.0574576 3.61526e-20)
(0.225735 0.0281601 3.37066e-20)
(0.364117 -0.00405595 3.15439e-20)
(0.524445 -0.0346963 2.95037e-20)
(0.670979 -0.068598 2.79196e-20)
(0.895725 -0.0946832 -2.5644e-20)
(-0.0367151 0.0437729 -7.69808e-20)
(-0.0462638 0.0714653 -2.29444e-20)
(-0.00207424 0.0687788 -8.51206e-20)
(0.0885202 0.048822 -3.91181e-20)
(0.221225 0.020339 4.53641e-22)
(0.388699 -0.0113138 -3.34012e-20)
(0.579313 -0.0425892 3.17527e-20)
(0.782408 -0.0698642 -2.94996e-20)
(0.962384 -0.0973672 2.73664e-20)
(1.20058 -0.112749 -5.12756e-20)
(-0.0383541 0.0385774 5.17299e-20)
(-0.0312094 0.0528543 0)
(0.0481771 0.0399121 4.33396e-20)
(0.189509 0.0133751 -7.22423e-23)
(0.382073 -0.0172084 5.72509e-22)
(0.607191 -0.0464372 3.37006e-20)
(0.842793 -0.0705459 -9.53181e-20)
(1.06552 -0.0914071 0)
(1.26267 -0.105552 -2.7363e-20)
(1.45374 -0.113856 0)
(-0.261512 0.00960424 0)
(-0.272455 0.00769443 -2.9773e-21)
(-0.280523 0.00545271 5.92069e-21)
(-0.2856 0.00312307 -2.57694e-21)
(-0.287637 0.000727433 0)
(-0.286599 -0.00180637 2.68121e-21)
(-0.282404 -0.00443004 -2.6945e-21)
(-0.274877 -0.00711111 0)
(-0.263898 -0.00982343 0)
(-0.24938 -0.0125457 2.77004e-22)
(-0.231257 -0.0152687 0)
(-0.209521 -0.0179423 0)
(-0.184191 -0.0205787 0)
(-0.155278 -0.0231772 0)
(-0.122779 -0.0257704 -2.51193e-22)
(-0.0865849 -0.0284489 2.52495e-22)
(-0.0466947 -0.0312394 0)
(-0.00354658 -0.0343131 -3.85535e-23)
(0.0444167 -0.037434 3.87565e-23)
(0.112904 -0.0396745 0)
(-0.203064 0.0253951 0)
(-0.210282 0.0198692 7.67897e-22)
(-0.214508 0.0134059 0)
(-0.215793 0.00666291 1.12467e-20)
(-0.214462 -0.000420789 -1.0937e-20)
(-0.210382 -0.00786222 7.06082e-22)
(-0.203338 -0.0155427 -5.21089e-21)
(-0.193208 -0.0233874 1.08186e-20)
(-0.179902 -0.0313226 -8.9703e-21)
(-0.163366 -0.0392985 4.9382e-21)
(-0.143481 -0.0473651 3.88849e-21)
(-0.12028 -0.0551171 -6.90648e-21)
(-0.0938565 -0.0627345 3.48944e-21)
(-0.0642369 -0.0702062 1.64858e-21)
(-0.0315276 -0.0775601 -1.29223e-21)
(0.00441683 -0.0849073 2.43345e-22)
(0.0434694 -0.0925234 1.83017e-22)
(0.08499 -0.100756 1.72733e-22)
(0.129773 -0.109174 -1.73571e-22)
(0.193028 -0.116698 5.11605e-24)
(-0.0985345 0.0315748 -7.9053e-22)
(-0.0986363 0.0230271 -7.69241e-22)
(-0.0958374 0.0130135 -7.75836e-22)
(-0.0905033 0.00240302 0)
(-0.083182 -0.00887189 -1.30748e-20)
(-0.073526 -0.0206258 1.02137e-20)
(-0.0613592 -0.0327596 0)
(-0.0466206 -0.0451735 -1.31512e-21)
(-0.0292793 -0.0577453 -6.0938e-22)
(-0.00949204 -0.0703565 7.71799e-21)
(0.013355 -0.082813 -8.08488e-22)
(0.0391787 -0.0950352 -9.10169e-21)
(0.0673132 -0.10699 -4.40219e-22)
(0.0979308 -0.118582 -3.60178e-22)
(0.130942 -0.129789 -3.23147e-22)
(0.166221 -0.140634 6.41756e-22)
(0.203499 -0.151455 -6.26592e-22)
(0.24264 -0.162655 -6.44828e-22)
(0.281551 -0.173861 -1.20378e-22)
(0.337742 -0.186187 2.07172e-23)
(0.0380293 0.0240197 -2.46986e-20)
(0.047072 0.0139868 3.29479e-22)
(0.0585692 0.00152473 1.19685e-21)
(0.0721795 -0.0123318 2.49791e-20)
(0.0872742 -0.0269127 2.27664e-21)
(0.104083 -0.0420306 7.25194e-22)
(0.122662 -0.0576901 -2.0733e-20)
(0.143096 -0.0737674 1.23582e-20)
(0.165425 -0.0900779 1.05747e-20)
(0.189628 -0.106384 -9.85216e-21)
(0.215762 -0.12229 8.02241e-22)
(0.243796 -0.138016 9.98697e-21)
(0.273538 -0.153266 4.36555e-22)
(0.304845 -0.167854 3.68453e-21)
(0.337543 -0.181719 -2.57196e-21)
(0.371468 -0.194833 -1.90585e-21)
(0.406015 -0.207311 1.67918e-21)
(0.442148 -0.219496 0)
(0.474123 -0.230908 2.56673e-22)
(0.5227 -0.244718 1.56098e-23)
(0.201165 0.0020543 5.16507e-20)
(0.221557 -0.00836317 -2.41675e-20)
(0.240504 -0.0223915 2.584e-20)
(0.262077 -0.0382157 0)
(0.285325 -0.0548235 -1.52946e-21)
(0.309471 -0.0721557 -2.36246e-20)
(0.334499 -0.090196 -4.84339e-22)
(0.36054 -0.108768 1.11689e-21)
(0.387626 -0.127617 2.16661e-20)
(0.415689 -0.146449 1.21281e-21)
(0.444683 -0.164969 0)
(0.474482 -0.182948 -1.01725e-21)
(0.504947 -0.200167 0)
(0.53583 -0.216374 -7.91568e-22)
(0.566948 -0.231493 0)
(0.598165 -0.245338 0)
(0.628538 -0.258043 4.23332e-22)
(0.660077 -0.269653 -4.9523e-22)
(0.685063 -0.279707 4.39199e-22)
(0.724332 -0.291527 -1.17057e-22)
(0.399792 -0.0300156 0)
(0.429086 -0.041008 -1.63975e-21)
(0.454053 -0.0561487 -5.15297e-20)
(0.481266 -0.0728989 4.99305e-20)
(0.510267 -0.0904743 -1.56335e-21)
(0.539763 -0.108945 0)
(0.569423 -0.128268 -2.30078e-20)
(0.599292 -0.148173 4.35129e-20)
(0.629353 -0.168333 -2.32492e-20)
(0.659428 -0.18839 -1.2517e-21)
(0.689397 -0.208016 -1.15785e-21)
(0.718982 -0.226839 -1.05487e-21)
(0.748116 -0.244629 0)
(0.776374 -0.260991 5.26884e-21)
(0.803781 -0.275939 -1.19008e-20)
(0.829954 -0.289007 5.10186e-21)
(0.854373 -0.300639 -4.49796e-22)
(0.87855 -0.31024 -3.20471e-22)
(0.89656 -0.318197 1.24618e-22)
(0.923507 -0.325823 -1.21639e-22)
(0.644934 -0.0658004 5.22035e-20)
(0.676894 -0.0770908 0)
(0.703906 -0.093145 -1.62234e-21)
(0.732752 -0.110382 3.19002e-21)
(0.763331 -0.128284 3.11907e-21)
(0.794142 -0.147175 1.5116e-21)
(0.824655 -0.166919 1.45821e-21)
(0.854715 -0.187131 -2.04738e-20)
(0.884187 -0.207455 2.44743e-20)
(0.912709 -0.227483 2.16206e-20)
(0.940163 -0.246875 -1.79608e-20)
(0.966038 -0.265147 2.07817e-21)
(0.990501 -0.282118 -7.00008e-21)
(1.01273 -0.297225 1.75584e-21)
(1.03345 -0.310705 7.40826e-21)
(1.05133 -0.321707 5.64999e-22)
(1.06773 -0.331269 -6.35973e-22)
(1.08125 -0.337813 8.17559e-22)
(1.092 -0.343416 1.19058e-21)
(1.10359 -0.346071 5.946e-23)
(0.930976 -0.0976968 0)
(0.95798 -0.109521 -5.25674e-20)
(0.981756 -0.125824 5.39647e-20)
(1.00743 -0.142924 -1.59592e-21)
(1.03457 -0.16084 -3.08337e-21)
(1.06178 -0.179754 -1.51019e-21)
(1.08841 -0.199296 -2.87713e-21)
(1.11396 -0.219015 0)
(1.13819 -0.238578 -1.30912e-21)
(1.16052 -0.257544 -1.22216e-21)
(1.18099 -0.275603 -1.10276e-21)
(1.19882 -0.292209 -2.02292e-21)
(1.21467 -0.307301 0)
(1.22709 -0.320181 0)
(1.23809 -0.331369 -6.74226e-22)
(1.24466 -0.339645 -4.99264e-21)
(1.25133 -0.346713 3.45534e-21)
(1.25193 -0.34997 -2.98984e-22)
(1.25524 -0.353345 -5.98767e-22)
(1.25032 -0.351568 1.73248e-22)
(1.22301 -0.118332 5.34571e-20)
(1.24159 -0.131656 0)
(1.25922 -0.147703 0)
(1.27825 -0.164641 -4.92393e-20)
(1.29803 -0.182604 2.73504e-21)
(1.31747 -0.201236 9.32387e-20)
(1.33584 -0.220051 -4.41545e-20)
(1.35235 -0.238675 0)
(1.36683 -0.256833 0)
(1.37863 -0.274083 0)
(1.38817 -0.290184 5.64008e-22)
(1.39443 -0.304604 1.45949e-21)
(1.39878 -0.317406 1.29655e-20)
(1.39916 -0.327849 -1.25092e-20)
(1.39898 -0.336655 4.64226e-21)
(1.39344 -0.342395 -4.08366e-21)
(1.39037 -0.347212 0)
(1.37865 -0.347809 1.49277e-22)
(1.37542 -0.34941 1.71896e-22)
(1.35612 -0.344409 0)
(1.47578 -0.127233 -8.31148e-22)
(1.49182 -0.141633 -5.11163e-20)
(1.50371 -0.156812 5.05844e-20)
(1.51354 -0.173063 0)
(1.52235 -0.190012 4.5848e-20)
(1.53002 -0.207141 -8.92964e-20)
(1.53614 -0.224223 4.34714e-20)
(1.54005 -0.241032 0)
(1.54186 -0.257331 1.83913e-20)
(1.54104 -0.272691 -3.51732e-20)
(1.53838 -0.286904 1.73137e-20)
(1.53276 -0.299466 -4.66339e-22)
(1.5261 -0.310474 0)
(1.51581 -0.319216 -1.07718e-20)
(1.50634 -0.326438 1.46432e-20)
(1.49149 -0.330735 -4.28875e-21)
(1.48132 -0.334259 -2.57352e-21)
(1.46121 -0.333657 1.83171e-21)
(1.45384 -0.334366 8.4599e-22)
(1.4254 -0.328038 0)
(1.69574 -0.115588 0)
(1.69269 -0.130355 0)
(1.68561 -0.14374 0)
(1.6777 -0.158088 0)
(1.6708 -0.173476 0)
(1.6646 -0.18923 0)
(1.65841 -0.204862 0)
(1.65118 -0.220056 0)
(1.64302 -0.23471 0)
(1.63314 -0.248541 0)
(1.6225 -0.261488 0)
(1.60967 -0.273095 0)
(1.59684 -0.283523 0)
(1.58092 -0.292074 0)
(1.56681 -0.299459 0)
(1.54758 -0.304345 0)
(1.53404 -0.308614 0)
(1.51042 -0.309319 0)
(1.50087 -0.310935 0)
(1.4692 -0.306646 0)
(1.75966 -0.104315 0)
(1.76076 -0.120462 0)
(1.75384 -0.135487 0)
(1.74369 -0.150824 0)
(1.73379 -0.166623 0)
(1.72444 -0.182402 0)
(1.71502 -0.197764 0)
(1.70446 -0.212431 0)
(1.69296 -0.22635 0)
(1.67984 -0.239289 0)
(1.66622 -0.251246 0)
(1.65066 -0.261823 0)
(1.63547 -0.271217 0)
(1.61746 -0.27879 0)
(1.60162 -0.28525 0)
(1.58088 -0.28935 0)
(1.56617 -0.292894 0)
(1.54153 -0.293078 0)
(1.53129 -0.294215 0)
(1.49924 -0.289625 0)
(1.79377 -0.0945168 0)
(1.79519 -0.111472 0)
(1.78783 -0.127491 0)
(1.77663 -0.142975 0)
(1.76549 -0.158165 0)
(1.75493 -0.172968 0)
(1.74437 -0.18723 0)
(1.73267 -0.200745 0)
(1.72005 -0.213472 0)
(1.70586 -0.225212 0)
(1.6913 -0.235998 0)
(1.67494 -0.245495 0)
(1.65912 -0.253919 0)
(1.64061 -0.260699 0)
(1.62443 -0.266494 0)
(1.60347 -0.270177 0)
(1.58867 -0.273366 0)
(1.56407 -0.273562 0)
(1.55395 -0.274561 0)
(1.52216 -0.270553 0)
(1.81013 -0.085607 0)
(1.81164 -0.102661 0)
(1.80463 -0.118822 0)
(1.79354 -0.133952 0)
(1.78221 -0.148338 0)
(1.77134 -0.162145 0)
(1.76048 -0.175391 0)
(1.74853 -0.187921 0)
(1.73573 -0.199687 0)
(1.72142 -0.210498 0)
(1.70682 -0.220405 0)
(1.69053 -0.229117 0)
(1.67487 -0.236849 0)
(1.65662 -0.243083 0)
(1.64078 -0.248427 0)
(1.62025 -0.25185 0)
(1.60588 -0.25482 0)
(1.58188 -0.255082 0)
(1.57211 -0.256044 0)
(1.54121 -0.252564 0)
(1.81813 -0.0782237 0)
(1.81973 -0.0947119 0)
(1.81347 -0.110395 0)
(1.80308 -0.124906 0)
(1.79212 -0.138486 0)
(1.78141 -0.151382 0)
(1.77067 -0.163699 0)
(1.75891 -0.175323 0)
(1.74637 -0.186206 0)
(1.73239 -0.196171 0)
(1.71818 -0.205275 0)
(1.70233 -0.213263 0)
(1.68718 -0.22035 0)
(1.6695 -0.226065 0)
(1.65426 -0.230974 0)
(1.6344 -0.234133 0)
(1.62063 -0.236885 0)
(1.59741 -0.237187 0)
(1.58809 -0.238112 0)
(1.55821 -0.235059 0)
(1.82434 -0.0721853 0)
(1.82583 -0.0876509 0)
(1.82024 -0.102492 0)
(1.81063 -0.116216 0)
(1.80019 -0.128965 0)
(1.78978 -0.140973 0)
(1.77929 -0.152381 0)
(1.76784 -0.163113 0)
(1.75568 -0.173136 0)
(1.74213 -0.182288 0)
(1.72841 -0.190631 0)
(1.71308 -0.197937 0)
(1.6985 -0.204419 0)
(1.68143 -0.209647 0)
(1.66681 -0.21415 0)
(1.64763 -0.217061 0)
(1.63446 -0.21961 0)
(1.61199 -0.219941 0)
(1.60311 -0.220828 0)
(1.57417 -0.218145 0)
(1.83173 -0.0669209 0)
(1.8328 -0.0811855 0)
(1.82762 -0.0950186 0)
(1.81865 -0.107856 0)
(1.8087 -0.11974 0)
(1.79857 -0.130867 0)
(1.78832 -0.141386 0)
(1.77713 -0.15125 0)
(1.7653 -0.160447 0)
(1.75214 -0.168826 0)
(1.73885 -0.176455 0)
(1.72398 -0.183124 0)
(1.70989 -0.189042 0)
(1.69335 -0.193813 0)
(1.67926 -0.197933 0)
(1.66066 -0.200603 0)
(1.648 -0.202956 0)
(1.62617 -0.203293 0)
(1.61766 -0.204136 0)
(1.58953 -0.201758 0)
(1.84082 -0.0620653 0)
(1.84125 -0.0751037 0)
(1.83625 -0.0878585 0)
(1.82776 -0.0997449 0)
(1.81821 -0.110738 0)
(1.80831 -0.120988 0)
(1.79822 -0.130641 0)
(1.78722 -0.139669 0)
(1.77564 -0.148073 0)
(1.76277 -0.155719 0)
(1.7498 -0.162672 0)
(1.73529 -0.16874 0)
(1.72159 -0.174125 0)
(1.70546 -0.178461 0)
(1.6918 -0.182215 0)
(1.67365 -0.184648 0)
(1.66141 -0.186805 0)
(1.64008 -0.18713 0)
(1.63187 -0.187919 0)
(1.60439 -0.185797 0)
(1.85121 -0.057444 0)
(1.85089 -0.0692662 0)
(1.84591 -0.0809085 0)
(1.83778 -0.0918042 0)
(1.82853 -0.101885 0)
(1.8188 -0.111263 0)
(1.80881 -0.12007 0)
(1.79792 -0.12829 0)
(1.7865 -0.135931 0)
(1.77383 -0.142873 0)
(1.76111 -0.14918 0)
(1.74686 -0.154676 0)
(1.73345 -0.159553 0)
(1.71762 -0.163475 0)
(1.70428 -0.166876 0)
(1.68647 -0.169078 0)
(1.67455 -0.171042 0)
(1.65361 -0.171344 0)
(1.64564 -0.172073 0)
(1.61866 -0.170173 0)
(1.8623 -0.052923 0)
(1.86121 -0.0635474 0)
(1.85614 -0.0740692 0)
(1.84825 -0.0839569 0)
(1.83923 -0.093116 0)
(1.82962 -0.101628 0)
(1.81968 -0.109606 0)
(1.80885 -0.11704 0)
(1.79753 -0.123943 0)
(1.78499 -0.130208 0)
(1.77244 -0.135894 0)
(1.75837 -0.140843 0)
(1.74517 -0.145233 0)
(1.72956 -0.148759 0)
(1.71647 -0.151822 0)
(1.69892 -0.1538 0)
(1.68724 -0.155574 0)
(1.66659 -0.155847 0)
(1.65881 -0.156513 0)
(1.63221 -0.154811 0)
(1.87358 -0.0483889 0)
(1.87171 -0.0578473 0)
(1.86648 -0.0672625 0)
(1.85874 -0.0761437 0)
(1.84988 -0.0843825 0)
(1.84035 -0.0920354 0)
(1.83044 -0.0992008 0)
(1.81962 -0.105868 0)
(1.80836 -0.112055 0)
(1.79591 -0.117663 0)
(1.78347 -0.122751 0)
(1.76953 -0.127173 0)
(1.75648 -0.131096 0)
(1.74103 -0.134242 0)
(1.72812 -0.136978 0)
(1.71075 -0.138741 0)
(1.69926 -0.14033 0)
(1.67883 -0.14057 0)
(1.67119 -0.141172 0)
(1.64489 -0.139653 0)
(1.88458 -0.0437732 0)
(1.88196 -0.0521066 0)
(1.87653 -0.0604395 0)
(1.86887 -0.0683253 0)
(1.86014 -0.0756509 0)
(1.85066 -0.0824546 0)
(1.84074 -0.0888204 0)
(1.82992 -0.0947385 0)
(1.81868 -0.100226 0)
(1.80628 -0.105197 0)
(1.79393 -0.109705 0)
(1.78007 -0.113619 0)
(1.76714 -0.11709 0)
(1.75179 -0.11987 0)
(1.73902 -0.122291 0)
(1.72178 -0.123846 0)
(1.71044 -0.125253 0)
(1.69017 -0.125462 0)
(1.68264 -0.125998 0)
(1.65657 -0.12465 0)
(1.89497 -0.0390435 0)
(1.89165 -0.046293 0)
(1.88599 -0.05357 0)
(1.87838 -0.0604754 0)
(1.86973 -0.0668982 0)
(1.86027 -0.0728637 0)
(1.85034 -0.0784429 0)
(1.8395 -0.0836266 0)
(1.82827 -0.0884314 0)
(1.8159 -0.0927808 0)
(1.8036 -0.0967241 0)
(1.78979 -0.100144 0)
(1.77694 -0.103178 0)
(1.76168 -0.105604 0)
(1.74901 -0.107718 0)
(1.73187 -0.109073 0)
(1.72064 -0.110303 0)
(1.70049 -0.110481 0)
(1.69305 -0.110951 0)
(1.66715 -0.109769 0)
(1.90449 -0.0341845 0)
(1.90053 -0.0403878 0)
(1.89465 -0.0466349 0)
(1.88705 -0.0525768 0)
(1.87846 -0.0581093 0)
(1.86901 -0.0632483 0)
(1.85905 -0.0680536 0)
(1.84818 -0.0725165 0)
(1.83695 -0.0766523 0)
(1.82458 -0.0803941 0)
(1.81232 -0.0837859 0)
(1.79855 -0.0867254 0)
(1.78576 -0.0893329 0)
(1.77055 -0.0914146 0)
(1.75796 -0.0932316 0)
(1.74089 -0.0943915 0)
(1.72974 -0.0954494 0)
(1.70968 -0.0955972 0)
(1.70231 -0.0960028 0)
(1.67654 -0.0949817 0)
(1.91294 -0.02919 0)
(1.90842 -0.0343818 0)
(1.90232 -0.0396243 0)
(1.89472 -0.0446202 0)
(1.88616 -0.0492757 0)
(1.87671 -0.0536004 0)
(1.86673 -0.0576437 0)
(1.85582 -0.0613981 0)
(1.84458 -0.0648768 0)
(1.83222 -0.068023 0)
(1.81997 -0.0708744 0)
(1.80623 -0.0733438 0)
(1.79347 -0.0755345 0)
(1.7783 -0.0772813 0)
(1.76577 -0.0788073 0)
(1.74875 -0.0797786 0)
(1.73767 -0.0806673 0)
(1.71767 -0.0807875 0)
(1.71035 -0.081129 0)
(1.68468 -0.0802664 0)
(1.92018 -0.024064 0)
(1.91517 -0.0282752 0)
(1.90888 -0.0325362 0)
(1.90127 -0.0366023 0)
(1.89273 -0.0403935 0)
(1.88327 -0.0439156 0)
(1.87326 -0.0472081 0)
(1.86232 -0.050265 0)
(1.85106 -0.0530971 0)
(1.83869 -0.0556578 0)
(1.82646 -0.057978 0)
(1.81273 -0.0599866 0)
(1.80001 -0.0617682 0)
(1.78486 -0.0631876 0)
(1.77236 -0.0644282 0)
(1.75538 -0.0652161 0)
(1.74435 -0.0659385 0)
(1.7244 -0.0660335 0)
(1.71712 -0.0663114 0)
(1.69153 -0.0656062 0)
(1.92609 -0.018827 0)
(1.92069 -0.0220833 0)
(1.91424 -0.025381 0)
(1.9066 -0.02853 0)
(1.89807 -0.031467 0)
(1.8886 -0.0341958 0)
(1.87856 -0.0367467 0)
(1.8676 -0.0391151 0)
(1.85632 -0.041309 0)
(1.84395 -0.0432926 0)
(1.83172 -0.0450892 0)
(1.818 -0.0466445 0)
(1.80529 -0.0480231 0)
(1.79016 -0.0491217 0)
(1.77769 -0.0500811 0)
(1.76074 -0.0506902 0)
(1.74974 -0.0512486 0)
(1.72982 -0.0513206 0)
(1.72258 -0.0515353 0)
(1.69704 -0.0509871 0)
(1.93057 -0.013514 0)
(1.92488 -0.0158352 0)
(1.9183 -0.018183 0)
(1.91065 -0.0204234 0)
(1.90212 -0.0225122 0)
(1.89264 -0.0244534 0)
(1.88258 -0.0262681 0)
(1.87159 -0.027954 0)
(1.8603 -0.0295151 0)
(1.84792 -0.0309276 0)
(1.83569 -0.0322054 0)
(1.82198 -0.0333132 0)
(1.80928 -0.0342927 0)
(1.79416 -0.0350759 0)
(1.78172 -0.035756 0)
(1.76477 -0.0361916 0)
(1.75381 -0.0365855 0)
(1.73391 -0.0366392 0)
(1.72669 -0.0367883 0)
(1.70119 -0.0363989 0)
(1.93356 -0.00808222 0)
(1.92768 -0.00949683 0)
(1.92102 -0.0109164 0)
(1.91336 -0.0122646 0)
(1.90484 -0.0135174 0)
(1.89535 -0.0146807 0)
(1.88527 -0.015767 0)
(1.87426 -0.0167774 0)
(1.86296 -0.0177113 0)
(1.85058 -0.0185584 0)
(1.83835 -0.0193214 0)
(1.82464 -0.019987 0)
(1.81195 -0.0205696 0)
(1.79684 -0.0210431 0)
(1.78441 -0.0214436 0)
(1.76748 -0.0217124 0)
(1.75653 -0.0219377 0)
(1.73665 -0.0219816 0)
(1.72944 -0.0220582 0)
(1.70396 -0.0218344 0)
(1.935 -0.00254969 0)
(1.92904 -0.00306505 0)
(1.92236 -0.00356874 0)
(1.9147 -0.00403912 0)
(1.90619 -0.00447092 0)
(1.8967 -0.00486875 0)
(1.88662 -0.0052376 0)
(1.8756 -0.00557972 0)
(1.8643 -0.00589412 0)
(1.85191 -0.00617963 0)
(1.83968 -0.00643474 0)
(1.82597 -0.00665899 0)
(1.81329 -0.0068522 0)
(1.79818 -0.00701289 0)
(1.78575 -0.00714358 0)
(1.76883 -0.00723758 0)
(1.75788 -0.00730757 0)
(1.73802 -0.0073286 0)
(1.73081 -0.00734766 0)
(1.70535 -0.00727849 0)
(1.78645 0.141512 -6.37044e-22)
(1.80576 0.117716 0)
(1.81926 0.0929085 3.54999e-22)
(1.82863 0.0672501 1.12277e-20)
(1.8317 0.0409589 -3.16676e-20)
(1.83237 0.0147959 0)
(1.82703 -0.0121212 -3.86946e-20)
(1.80918 -0.0377797 0)
(1.80489 -0.064698 -4.54603e-20)
(1.69486 -0.0961912 7.03528e-22)
(1.79037 0.126534 1.79969e-22)
(1.80768 0.105766 -2.10677e-22)
(1.82062 0.0838208 2.111e-22)
(1.82786 0.0618143 -2.05979e-21)
(1.83368 0.0383105 1.08035e-20)
(1.82864 0.0156521 8.5668e-22)
(1.83668 -0.0083523 0)
(1.80573 -0.032762 3.35343e-20)
(1.83369 -0.0533852 0)
(1.75344 -0.0860011 3.95277e-20)
(1.79869 0.11185 -1.69311e-22)
(1.81226 0.093426 0)
(1.82563 0.0736875 2.3141e-22)
(1.82781 0.0540336 -2.14718e-21)
(1.83836 0.0333609 -1.16731e-20)
(1.82501 0.0123575 0)
(1.84252 -0.00721563 -2.51662e-20)
(1.80647 -0.0318103 -3.43075e-20)
(1.83519 -0.0471908 0)
(1.78659 -0.0771593 -3.91264e-20)
(1.80945 0.0990405 -2.09378e-23)
(1.8193 0.0822855 -6.41068e-22)
(1.83362 0.0650025 0)
(1.83115 0.0468003 -7.69893e-21)
(1.84456 0.0294689 -6.03318e-22)
(1.8273 0.00911327 1.31062e-21)
(1.84493 -0.00634576 2.45239e-20)
(1.8145 -0.0302059 8.02913e-22)
(1.83168 -0.0432558 2.77872e-20)
(1.80307 -0.0690631 0)
(1.8213 0.0876898 0)
(1.82862 0.0722947 5.97043e-22)
(1.84287 0.0575694 1.34645e-21)
(1.83856 0.0404626 -5.13532e-22)
(1.85111 0.02616 3.85063e-22)
(1.83538 0.00676773 5.99644e-22)
(1.84718 -0.00615327 1.77833e-20)
(1.82518 -0.0278097 1.46184e-21)
(1.8321 -0.040354 -4.13286e-21)
(1.81178 -0.0625056 -2.6734e-20)
(1.83345 0.0775277 4.7979e-22)
(1.83971 0.0633756 -1.5114e-23)
(1.85246 0.0507957 -5.49082e-22)
(1.84883 0.0349032 -8.50333e-23)
(1.8582 0.0226559 4.95176e-21)
(1.84629 0.00490797 0)
(1.85188 -0.0069041 -1.96202e-20)
(1.83566 -0.0258408 5.89151e-22)
(1.83707 -0.0382596 -4.49473e-20)
(1.81887 -0.0575545 4.9665e-20)
(1.84564 0.068309 -4.8215e-22)
(1.85176 0.055457 -5.90365e-22)
(1.8623 0.0444433 -5.18786e-22)
(1.86028 0.0300392 1.69622e-21)
(1.86639 0.0190015 -1.07197e-21)
(1.85773 0.00325141 5.29327e-21)
(1.85947 -0.00802992 -4.97055e-22)
(1.84592 -0.0245115 1.06539e-21)
(1.84524 -0.0364743 2.01841e-20)
(1.8273 -0.0535353 -2.29676e-20)
(1.85779 0.0599067 0)
(1.864 0.0484221 1.48793e-21)
(1.87252 0.0385473 -4.55701e-23)
(1.87181 0.0257638 -1.52629e-21)
(1.87573 0.0155576 -1.16201e-21)
(1.86895 0.00175508 -9.0389e-21)
(1.86903 -0.00894492 5.05849e-21)
(1.8566 -0.0234274 0)
(1.85532 -0.0345963 0)
(1.83758 -0.0498921 0)
(1.8698 0.0522724 0)
(1.87593 0.0421347 -1.82034e-21)
(1.883 0.0331957 -8.61451e-23)
(1.88299 0.0219675 -3.99246e-22)
(1.88576 0.0125463 -2.52236e-21)
(1.87992 0.000441822 4.34002e-21)
(1.87949 -0.00947874 -5.9746e-21)
(1.86781 -0.0223436 3.35013e-22)
(1.86628 -0.032591 0)
(1.84918 -0.0464156 -7.27531e-21)
(1.88147 0.0453659 9.15155e-23)
(1.88733 0.036479 1.09136e-21)
(1.89343 0.0284165 1.33248e-21)
(1.8937 0.0185789 6.06862e-23)
(1.89593 0.00999988 -9.67277e-24)
(1.89066 -0.000668695 2.21138e-21)
(1.89007 -0.00969623 -3.72396e-21)
(1.87921 -0.0211978 2.67238e-22)
(1.87743 -0.0305052 0)
(1.86144 -0.0430064 1.33338e-20)
(1.89259 0.039129 0)
(1.89808 0.0313727 1.44841e-21)
(1.9035 0.0241775 3.77828e-22)
(1.9039 0.0155642 0)
(1.9058 0.00786984 0)
(1.90106 -0.00155462 -1.87887e-21)
(1.90033 -0.00965789 3.11793e-21)
(1.89045 -0.0199364 2.71196e-22)
(1.88838 -0.0283026 -1.05101e-22)
(1.8738 -0.0395573 -6.22995e-21)
(1.90295 0.03349 0)
(1.90808 0.0267568 -2.90481e-21)
(1.91297 0.0204208 -2.14924e-21)
(1.91347 0.0129057 1.93318e-22)
(1.9151 0.00610434 -9.2482e-23)
(1.91093 -0.00219183 8.4811e-23)
(1.91002 -0.0093731 -2.39498e-22)
(1.90122 -0.0184987 -2.24861e-21)
(1.89884 -0.0259298 -3.46061e-22)
(1.88581 -0.035988 1.31328e-22)
(1.91242 0.0283732 0)
(1.91724 0.0225801 1.61816e-21)
(1.92166 0.0170848 -1.21364e-22)
(1.9223 0.0105839 1.2036e-22)
(1.92367 0.00466311 0)
(1.92011 -0.00257017 0)
(1.91899 -0.00884437 0)
(1.9113 -0.0168573 2.60601e-21)
(1.90859 -0.0233708 -2.73766e-21)
(1.89712 -0.0322628 0)
(1.9209 0.0237084 0)
(1.92546 0.0187933 1.13767e-21)
(1.92947 0.0141123 1.19586e-21)
(1.93027 0.00857023 1.12433e-21)
(1.93139 0.00350836 -1.71707e-22)
(1.92842 -0.00270205 4.32074e-22)
(1.92711 -0.00809029 1.51128e-22)
(1.92046 -0.0150172 0)
(1.91745 -0.0206337 5.14915e-22)
(1.90746 -0.0283715 2.90375e-21)
(1.9283 0.0194426 -3.13903e-22)
(1.93266 0.0153563 -9.44082e-22)
(1.93632 0.0114598 -1.55328e-21)
(1.93728 0.00683616 -7.99739e-22)
(1.93818 0.00260719 0)
(1.93575 -0.00260935 -4.66807e-22)
(1.93426 -0.00713453 -1.50178e-22)
(1.92857 -0.0129925 3.28638e-23)
(1.92528 -0.0177299 1.30254e-21)
(1.91663 -0.0243133 -3.9323e-21)
(1.93458 0.0154828 3.15516e-22)
(1.93877 0.012201 -8.12792e-22)
(1.94213 0.00906876 5.74939e-22)
(1.94325 0.00533665 -1.16232e-21)
(1.94396 0.00191794 0)
(1.94201 -0.0023245 0)
(1.94037 -0.00600572 -4.91636e-24)
(1.93549 -0.0108029 2.55905e-22)
(1.93197 -0.0146751 7.33902e-22)
(1.92448 -0.0200964 1.12918e-21)
(1.93969 0.0117577 0)
(1.94375 0.00927018 1.27985e-21)
(1.94687 0.00688642 -3.79178e-22)
(1.94811 0.00402502 1.08732e-21)
(1.94867 0.00139654 2.51052e-22)
(1.94712 -0.00188669 -8.51656e-23)
(1.94535 -0.00474025 1.01236e-22)
(1.94115 -0.00848038 -2.06647e-22)
(1.93743 -0.0114994 0)
(1.93088 -0.0157464 0)
(1.94359 0.00826448 0)
(1.94755 0.00654728 5.51368e-22)
(1.95047 0.00489025 -8.39773e-22)
(1.95182 0.00287831 0)
(1.95226 0.00101997 -4.55524e-22)
(1.951 -0.00132029 -1.02471e-22)
(1.94914 -0.00336361 -1.86381e-22)
(1.94546 -0.00605517 2.03753e-23)
(1.94158 -0.00823446 1.32146e-23)
(1.93575 -0.0113038 -3.19667e-23)
(1.94624 0.00496114 0)
(1.95011 0.00399187 -5.54017e-22)
(1.9529 0.00305735 -4.14586e-22)
(1.9543 0.00189494 4.75467e-22)
(1.95466 0.000808019 1.77038e-22)
(1.95361 -0.000589681 1.52642e-22)
(1.95168 -0.00182581 3.33172e-22)
(1.94834 -0.00347138 -7.80941e-23)
(1.94436 -0.00482089 -7.99618e-24)
(1.939 -0.00671683 0)
(1.94756 0.00155708 0)
(1.95139 0.00135332 2.55759e-22)
(1.9541 0.00115241 -2.28276e-22)
(1.95553 0.00085373 1.95235e-22)
(1.95585 0.00055462 0)
(1.95489 0.000122772 -1.53407e-22)
(1.95293 -0.00028202 5.43321e-23)
(1.94975 -0.000849638 -1.23065e-23)
(1.9457 -0.00134072 0)
(1.94056 -0.00203081 0)
(1.24618 0.323352 0)
(1.21272 0.354758 -4.41268e-20)
(1.18783 0.394931 0)
(1.16828 0.445232 -1.4469e-19)
(1.15098 0.50528 5.77901e-20)
(1.13442 0.577294 2.98071e-21)
(1.11677 0.662875 3.83216e-20)
(1.07963 0.751676 -1.07781e-20)
(0.946723 0.776431 0)
(0.550872 0.492849 2.50499e-20)
(1.31567 0.324624 7.87606e-20)
(1.28617 0.363509 4.4125e-20)
(1.26777 0.402543 -3.87099e-20)
(1.25396 0.451297 4.88982e-20)
(1.24247 0.510661 -3.45011e-20)
(1.2332 0.581859 1.04486e-20)
(1.22421 0.665774 -4.1905e-20)
(1.19382 0.750329 -7.4186e-20)
(1.05464 0.766574 -1.94814e-20)
(0.610828 0.474754 -3.48643e-20)
(1.38351 0.320235 -3.19342e-20)
(1.36083 0.360821 3.23509e-20)
(1.34768 0.399149 3.8708e-20)
(1.33813 0.447103 3.84425e-20)
(1.33179 0.505705 3.75683e-20)
(1.32953 0.575337 3.56046e-20)
(1.32843 0.656017 1.21549e-20)
(1.30279 0.733501 2.49416e-20)
(1.15383 0.738923 3.39512e-22)
(0.660136 0.443196 -3.62424e-22)
(1.4523 0.312472 6.40095e-20)
(1.43513 0.35232 -3.23492e-20)
(1.42566 0.389035 0)
(1.41949 0.435193 0)
(1.4178 0.491733 0)
(1.42189 0.55844 1.6295e-20)
(1.42729 0.634135 -5.58227e-21)
(1.40334 0.701902 0)
(1.24036 0.694687 -8.07882e-21)
(0.694461 0.39959 1.99317e-20)
(1.51847 0.30082 -8.38133e-21)
(1.50574 0.338567 3.7385e-20)
(1.49935 0.373223 0)
(1.49636 0.416796 0)
(1.49902 0.469987 5.41114e-21)
(1.5086 0.532393 2.52326e-21)
(1.51853 0.601808 9.53442e-21)
(1.49272 0.656541 -7.93764e-21)
(1.30845 0.635194 -3.23281e-20)