/*--------------------------------*- C++ -*----------------------------------*\
| =========                 |                                                 |
| \\      /  F ield         | OpenFOAM: The Open Source CFD Toolbox           |
|  \\    /   O peration     | Version:  4.1                                   |
|   \\  /    A nd           | Web:      www.OpenFOAM.org                      |
|    \\/     M anipulation  |                                                 |
\*---------------------------------------------------------------------------*/
FoamFile
{
    version     2.0;
    format      ascii;
    class       volScalarField;
    location    "10";
    object      p;
}
// * * * * * * * * * * * * * * * * * * * * * * * * * * * * * * * * * * * * * //

dimensions      [0 2 -2 0 0 0 0];

internalField   nonuniform List<scalar> 
2000
(
-0.177334
-0.164629
-0.152959
-0.142027
-0.131584
-0.121597
-0.11197
-0.102728
-0.0952004
-0.0969938
-0.199268
-0.182726
-0.168323
-0.155179
-0.142697
-0.130768
-0.119253
-0.108179
-0.0983918
-0.0932188
-0.224015
-0.2033
-0.186019
-0.17044
-0.155455
-0.140847
-0.126447
-0.112242
-0.0986017
-0.0866234
-0.251355
-0.226255
-0.205952
-0.187552
-0.169326
-0.151011
-0.132543
-0.114003
-0.0956931
-0.0780025
-0.280648
-0.251116
-0.227584
-0.205722
-0.183212
-0.159994
-0.136384
-0.112818
-0.0898514
-0.0677812
-0.310763
-0.276935
-0.249828
-0.223558
-0.195491
-0.166165
-0.136568
-0.107621
-0.0801322
-0.0543345
-0.340035
-0.302218
-0.271008
-0.239118
-0.204173
-0.167764
-0.131742
-0.0974703
-0.0658475
-0.0369218
-0.366296
-0.32493
-0.288899
-0.250072
-0.207136
-0.163124
-0.120725
-0.08154
-0.0463006
-0.0147538
-0.386962
-0.34257
-0.300891
-0.253955
-0.202399
-0.150858
-0.102633
-0.0592663
-0.0210863
0.0124509
-0.399211
-0.352345
-0.304247
-0.248456
-0.188318
-0.129944
-0.0768751
-0.0302873
0.0100516
0.0448491
-0.0730627
-0.0782498
-0.0803668
-0.0809716
-0.0808948
-0.080309
-0.0793306
-0.0780689
-0.0766326
-0.075204
-0.0752065
-0.0801078
-0.0819656
-0.0823841
-0.0821396
-0.0813891
-0.0802505
-0.0788206
-0.0771908
-0.0757319
-0.0794976
-0.0837129
-0.0850929
-0.0851269
-0.0845193
-0.0834148
-0.081931
-0.0801403
-0.0780964
-0.0765394
-0.0856992
-0.0889035
-0.0895668
-0.0889992
-0.0878145
-0.0861415
-0.0840948
-0.0817132
-0.0789747
-0.0771237
-0.0936128
-0.0955201
-0.0952147
-0.0938099
-0.0918178
-0.0893434
-0.0864881
-0.0832425
-0.0794832
-0.0771965
-0.103104
-0.10344
-0.101905
-0.0994226
-0.096397
-0.092898
-0.0889953
-0.0845998
-0.0794055
-0.0762487
-0.114146
-0.112621
-0.109588
-0.105799
-0.101543
-0.0968442
-0.0917148
-0.0859689
-0.078958
-0.074197
-0.126848
-0.123114
-0.118325
-0.113012
-0.107364
-0.101347
-0.0948843
-0.08766
-0.0785449
-0.0712211
-0.141407
-0.135108
-0.128279
-0.121249
-0.114087
-0.106703
-0.0988889
-0.0901036
-0.0786689
-0.0680554
-0.158131
-0.148848
-0.139717
-0.130812
-0.122073
-0.113414
-0.104582
-0.094924
-0.082852
-0.0722469
-0.0739302
-0.0721962
-0.0701688
-0.0679292
-0.0654609
-0.0627456
-0.0597755
-0.056547
-0.0530598
-0.0493182
-0.0453313
-0.0411094
-0.0366685
-0.0320587
-0.0272904
-0.02239
-0.0173838
-0.0122565
-0.00701898
-0.00209824
-0.0750963
-0.0733512
-0.0712167
-0.0689314
-0.0664381
-0.0636946
-0.0606906
-0.0574223
-0.0538884
-0.0500932
-0.0460459
-0.0417561
-0.0372377
-0.0325555
-0.0277056
-0.022723
-0.0176385
-0.0124401
-0.00712656
-0.00211338
-0.0772117
-0.0754702
-0.0731204
-0.0707438
-0.0682047
-0.0654094
-0.0623423
-0.059
-0.0553798
-0.0514851
-0.047324
-0.0429011
-0.0382315
-0.0334269
-0.0284366
-0.0233083
-0.0180821
-0.0127539
-0.00731506
-0.00215908
-0.0799922
-0.0782244
-0.0755301
-0.0730116
-0.0704102
-0.0675443
-0.0643902
-0.0609488
-0.0572169
-0.0531962
-0.0488895
-0.0443123
-0.0395444
-0.0345048
-0.0293098
-0.0239943
-0.0185905
-0.0131055
-0.00752635
-0.00220613
-0.0827822
-0.0813359
-0.0781266
-0.0753556
-0.072669
-0.0697151
-0.0664505
-0.062891
-0.0590322
-0.0548634
-0.0503681
-0.0455664
-0.0406688
-0.0354707
-0.0300955
-0.024598
-0.0190213
-0.013392
-0.00770512
-0.0022558
-0.085564
-0.0845947
-0.0805906
-0.0774232
-0.0746236
-0.0715583
-0.0681577
-0.0644621
-0.0604548
-0.0561242
-0.0514813
-0.0467465
-0.0415423
-0.0361522
-0.0306213
-0.0249728
-0.0192594
-0.0135308
-0.00780349
-0.00229843
-0.0882958
-0.0878739
-0.0826792
-0.0789518
-0.0759945
-0.0727558
-0.069154
-0.0652931
-0.0610976
-0.0567887
-0.0521981
-0.0471171
-0.041824
-0.0363644
-0.030745
-0.0250124
-0.0192339
-0.0134794
-0.00779771
-0.00234623
-0.0907025
-0.0906746
-0.0839547
-0.0796233
-0.0764645
-0.0729309
-0.0689984
-0.0652287
-0.061234
-0.0567004
-0.0518662
-0.0468096
-0.0415414
-0.0360711
-0.0304402
-0.0247116
-0.0189568
-0.0132603
-0.00769846
-0.0024169
-0.0923039
-0.0916544
-0.0835308
-0.0788627
-0.0755809
-0.0721163
-0.0684405
-0.0642723
-0.059976
-0.0555059
-0.0508057
-0.045859
-0.0406756
-0.0352915
-0.0297577
-0.0241379
-0.0185027
-0.0129501
-0.00754982
-0.00251859
-0.0938156
-0.0890721
-0.0819387
-0.0778509
-0.073584
-0.0691921
-0.0652118
-0.0613221
-0.0573107
-0.0530868
-0.0486208
-0.0439101
-0.0389708
-0.0338375
-0.0285566
-0.0231933
-0.017811
-0.0125259
-0.00734335
-0.00262274
-0.0677666
-0.0682406
-0.0729322
-0.0723258
-0.0689607
-0.065338
-0.0618872
-0.0583252
-0.0545211
-0.0504735
-0.0461939
-0.0416897
-0.0369778
-0.0320932
-0.0270803
-0.0220092
-0.0169263
-0.0119777
-0.00705718
-0.00274734
-0.0657623
-0.0632495
-0.0664689
-0.0658361
-0.0627955
-0.0595755
-0.0565182
-0.0533262
-0.04989
-0.0462143
-0.0423185
-0.0382129
-0.0339136
-0.0294561
-0.0248798
-0.0202583
-0.0156136
-0.0111293
-0.0065784
-0.00280952
-0.0597755
-0.0571932
-0.0580444
-0.0572243
-0.0549425
-0.052402
-0.0498762
-0.0472141
-0.0442938
-0.0411211
-0.0377272
-0.0341276
-0.0303405
-0.0264023
-0.0223464
-0.0182506
-0.0141098
-0.0101466
-0.00601792
-0.00278561
-0.0498692
-0.0490756
-0.0484722
-0.0475081
-0.0460722
-0.0443922
-0.0425519
-0.0404958
-0.0381743
-0.0355999
-0.0327897
-0.0297649
-0.0265482
-0.0231782
-0.019682
-0.016142
-0.0125287
-0.00909413
-0.00541053
-0.00265914
-0.0374137
-0.0389519
-0.0380627
-0.0371974
-0.0365603
-0.0357799
-0.0347028
-0.033326
-0.0316682
-0.0297457
-0.0275729
-0.0251731
-0.0225681
-0.0197993
-0.0168898
-0.0139239
-0.0108558
-0.0079491
-0.00474075
-0.00242205
-0.023137
-0.0270864
-0.026888
-0.0265212
-0.0266975
-0.0268219
-0.0265606
-0.0259181
-0.0249614
-0.0237224
-0.0222151
-0.020461
-0.018485
-0.0163306
-0.014018
-0.01163
-0.00911482
-0.00672764
-0.00402167
-0.00209845
-0.0082569
-0.014298
-0.0153231
-0.0157947
-0.0168251
-0.0178318
-0.0183962
-0.0185094
-0.018265
-0.0177129
-0.0168706
-0.0157607
-0.0144099
-0.0128623
-0.0111384
-0.00931638
-0.00734954
-0.00546634
-0.00327729
-0.00172359
0.00613533
-0.00142721
-0.00382505
-0.00532879
-0.00723496
-0.00907813
-0.0104391
-0.0112958
-0.0117508
-0.0118674
-0.0116701
-0.0111835
-0.0104366
-0.00947347
-0.008317
-0.00703851
-0.00560332
-0.00420314
-0.00253049
-0.00133071
0.019479
0.0109335
0.00722796
0.00463708
0.00186786
-0.000753139
-0.00285875
-0.00442277
-0.00554576
-0.00629814
-0.00671186
-0.0068151
-0.00663921
-0.00622795
-0.00560793
-0.00484244
-0.00391353
-0.00297197
-0.00180139
-0.000946063
0.0315655
0.0224198
0.0175657
0.0139335
0.0103481
0.00701503
0.00422762
0.00200733
0.000260947
-0.00108415
-0.00206633
-0.00271776
-0.0030726
-0.00317407
-0.00305316
-0.00276527
-0.00231057
-0.00180026
-0.0011062
-0.000587181
0.0423359
0.0328373
0.0270213
0.0224511
0.0181212
0.014146
0.0107442
0.00792715
0.00561025
0.003722
0.00221922
0.00106592
0.000225005
-0.000346245
-0.000683257
-0.000834434
-0.000817201
-0.000707982
-0.000456831
-0.00026355
0.0518072
0.0421118
0.0355112
0.030128
0.0251381
0.0205932
0.0166455
0.013295
0.010465
0.00808694
0.00611435
0.004508
0.00322805
0.00223208
0.00148061
0.0009309
0.00055042
0.000291368
0.000138482
2.12961e-05
0.0600362
0.0502383
0.0430053
0.0369345
0.0313736
0.0263314
0.0219061
0.0180864
0.0148026
0.0119899
0.00959984
0.00759051
0.00591975
0.00454527
0.00342405
0.00251773
0.00178122
0.00118921
0.0006743
0.00026753
0.0670897
0.0572431
0.0495033
0.0428618
0.0368171
0.0313491
0.0265127
0.0222874
0.0186097
0.0154182
0.0126635
0.0103019
0.00828911
0.00658292
0.0051374
0.00391738
0.00286777
0.00198032
0.00114714
0.000477148
0.073029
0.0631631
0.0550198
0.0479129
0.0414672
0.0356423
0.0304594
0.0258908
0.0218784
0.018364
0.0152977
0.0126346
0.0103288
0.00833806
0.00661413
0.00512408
0.00380508
0.00266159
0.00155484
0.000652646
0.0779064
0.0680363
0.0595762
0.0520977
0.0453281
0.039212
0.0337447
0.0288935
0.0246045
0.0208225
0.0174975
0.0145836
0.0120339
0.00980593
0.00784975
0.00613393
0.00458981
0.00323113
0.00189602
0.000796268
0.0817633
0.0718959
0.0631933
0.0554278
0.0484059
0.0420611
0.0363694
0.0312945
0.0267859
0.022791
0.0192598
0.0161456
0.013401
0.0109832
0.00884111
0.00694424
0.00521967
0.00368774
0.00216975
0.000909645
0.0846358
0.0747699
0.0658898
0.0579143
0.0507073
0.0441938
0.0383357
0.0330944
0.0284221
0.0242683
0.0205828
0.0173187
0.014428
0.0118679
0.00958629
0.00755335
0.0056932
0.00403066
0.00237541
0.000993801
0.0865693
0.0766923
0.0676868
0.0595699
0.0522405
0.0456155
0.0396469
0.034295
0.029514
0.0252544
0.0214662
0.0181023
0.0151142
0.0124591
0.0100844
0.00796048
0.00600991
0.00425963
0.00251312
0.00104831
0.0875672
0.0776715
0.0685901
0.0603965
0.0530043
0.0463233
0.0402997
0.0348926
0.0300574
0.0257452
0.021906
0.0184924
0.0154559
0.0127535
0.0103327
0.00816305
0.00616846
0.00437235
0.00258466
0.00106835
0.0739796
0.0418832
0.0142882
-0.00878245
-0.0272431
-0.041713
-0.0524093
-0.0623979
-0.0705572
-0.0949572
0.0987917
0.0676851
0.0403934
0.0168334
-0.00284028
-0.0197248
-0.0335443
-0.0492602
-0.0605588
-0.0885286
0.120216
0.0903365
0.0635761
0.0396335
0.0187369
-0.000706826
-0.0171693
-0.0361686
-0.0465176
-0.0714883
0.138769
0.109977
0.0837679
0.0596944
0.0382444
0.0176611
0.000798746
-0.0183241
-0.0280518
-0.0511245
0.154814
0.126991
0.101394
0.0775485
0.0562419
0.0356874
0.0191852
0.00041518
-0.0105502
-0.0316736
0.168726
0.14182
0.116906
0.0935369
0.0726335
0.0524186
0.0359113
0.0174591
0.0051479
-0.013257
0.180836
0.154804
0.130584
0.107773
0.0872456
0.0673986
0.0507214
0.0329817
0.019926
0.003982
0.1914
0.166183
0.142619
0.120371
0.10018
0.0807918
0.064084
0.0472638
0.0337611
0.0194664
0.200615
0.176141
0.153187
0.131496
0.111649
0.0927885
0.0761654
0.0601207
0.0463253
0.0330422
0.208627
0.184837
0.16245
0.141297
0.121805
0.10345
0.0869543
0.0714681
0.0575741
0.0449139
0.215564
0.192405
0.170542
0.149892
0.130748
0.112833
0.0964994
0.0814209
0.0675916
0.0553004
0.221543
0.198957
0.177574
0.15738
0.138569
0.121028
0.104891
0.0901188
0.0764332
0.0643493
0.226659
0.204586
0.183638
0.163851
0.145353
0.128132
0.112206
0.0976623
0.0841393
0.072173
0.230988
0.209369
0.188812
0.169384
0.151176
0.134226
0.118502
0.104131
0.0907613
0.078864
0.234592
0.213372
0.193162
0.174047
0.156098
0.139376
0.123833
0.109593
0.0963552
0.0844953
0.237522
0.216647
0.19674
0.177895
0.160172
0.143639
0.128249
0.114108
0.100971
0.0891227
0.239821
0.219239
0.199591
0.180973
0.163441
0.147059
0.131791
0.117718
0.10465
0.0927893
0.241518
0.221184
0.201756
0.183327
0.165951
0.149686
0.134507
0.120472
0.107435
0.095536
0.242621
0.222493
0.203251
0.18498
0.167731
0.151557
0.136439
0.12242
0.10938
0.0974159
0.24312
0.223111
0.203981
0.185808
0.168641
0.152527
0.137453
0.123449
0.110411
0.0983957
0.582205
0.583323
0.574787
0.558893
0.535395
0.502096
0.456078
0.397349
0.338967
0.31287
0.523239
0.517638
0.499939
0.475745
0.444082
0.401612
0.345452
0.276687
0.209537
0.176363
0.463661
0.450665
0.425702
0.39447
0.355165
0.304158
0.239052
0.161987
0.0880315
0.0491297
0.401255
0.38253
0.352432
0.315551
0.269645
0.211353
0.139184
0.0549802
-0.0215017
-0.0653809
0.339633
0.316053
0.281803
0.240248
0.188914
0.124765
0.0470086
-0.0394362
-0.117278
-0.164828
0.28074
0.252814
0.215201
0.169964
0.11454
0.0464527
-0.0341274
-0.120877
-0.197664
-0.247393
0.225288
0.193443
0.153597
0.105795
0.0477226
-0.0223169
-0.103226
-0.187803
-0.261266
-0.311984
0.172418
0.139132
0.0978262
0.0485143
-0.0106643
-0.0806519
-0.159434
-0.239283
-0.307609
-0.358395
0.124785
0.0902089
0.048319
-0.00127697
-0.0599563
-0.12788
-0.202226
-0.27524
-0.337203
-0.387305
0.0823249
0.0471568
0.00556109
-0.0431257
-0.0997395
-0.163708
-0.231663
-0.296403
-0.351421
-0.400195
1.02168
1.05015
1.08158
1.11572
1.15224
1.19046
1.22876
1.26407
1.29766
1.34349
1.01273
1.03991
1.07031
1.10329
1.13839
1.17489
1.21115
1.24403
1.27487
1.31923
0.994944
1.01958
1.04792
1.0786
1.11086
1.14392
1.17602
1.20408
1.22991
1.27043
0.968733
0.989699
1.01504
1.04236
1.07047
1.09848
1.12454
1.14559
1.16425
1.19907
0.93461
0.950928
0.97242
0.9954
1.01816
1.0397
1.058
1.07012
1.07971
1.10735
0.893191
0.904065
0.920995
0.938777
0.955148
0.968964
0.97806
0.979662
0.978682
0.997988
0.845156
0.85001
0.86185
0.873754
0.882888
0.887988
0.886742
0.876646
0.864073
0.874254
0.791006
0.789517
0.79608
0.801696
0.80299
0.79867
0.786322
0.763823
0.739161
0.739832
0.73114
0.723562
0.725139
0.724174
0.717193
0.703068
0.679277
0.644189
0.607506
0.598697
0.662603
0.653145
0.650861
0.642934
0.627461
0.603488
0.568306
0.520948
0.472851
0.454992
0.809863
0.810342
0.81157
0.813658
0.816596
0.820381
0.825047
0.83064
0.837196
0.844774
0.853444
0.863287
0.874388
0.886846
0.900766
0.916265
0.933463
0.952482
0.973442
0.996424
0.808226
0.808696
0.809902
0.811948
0.814829
0.818542
0.823124
0.8286
0.835014
0.842426
0.850898
0.860503
0.871319
0.883435
0.896945
0.911951
0.928555
0.946858
0.966953
0.98886
0.804984
0.805442
0.806608
0.808574
0.811339
0.8149
0.819319
0.824574
0.830717
0.837804
0.845886
0.855023
0.865278
0.876719
0.88942
0.903449
0.918875
0.935751
0.954114
0.973863
0.800239
0.800682
0.801794
0.80365
0.806263
0.809639
0.813765
0.818685
0.824434
0.831046
0.838555
0.847002
0.856427
0.866872
0.878372
0.890955
0.904631
0.919384
0.935168
0.951705
0.794123
0.794551
0.795595
0.797308
0.799707
0.802827
0.80661
0.811111
0.816353
0.822349
0.829113
0.836662
0.845007
0.854151
0.864083
0.874769
0.886147
0.898105
0.910486
0.922782
0.7868
0.787213
0.788183
0.789739
0.791914
0.794684
0.798065
0.802072
0.806703
0.811954
0.817819
0.824282
0.831317
0.838879
0.846896
0.855262
0.863818
0.872336
0.880515
0.887571
0.778459
0.778857
0.779748
0.781123
0.783021
0.78543
0.788359
0.791796
0.795725
0.800121
0.804949
0.810158
0.815678
0.821404
0.827195
0.832851
0.838098
0.842558
0.845761
0.846601
0.769302
0.76969
0.770503
0.771694
0.773292
0.775314
0.777745
0.780554
0.783706
0.787151
0.790821
0.794625
0.79844
0.802096
0.805368
0.807952
0.80944
0.809269
0.806752
0.800347
0.759539
0.759917
0.760658
0.761664
0.762974
0.764601
0.766517
0.768673
0.771013
0.773457
0.7759
0.7782
0.78017
0.781561
0.782043
0.781184
0.77842
0.772976
0.763993
0.749185
0.749383
0.749717
0.75034
0.751136
0.752127
0.753313
0.754656
0.756096
0.757555
0.758927
0.760069
0.760792
0.760843
0.759882
0.757463
0.752968
0.745605
0.734138
0.717498
0.690796
0.739477
0.739622
0.739899
0.740267
0.740704
0.741184
0.741653
0.742034
0.742222
0.742082
0.741438
0.740055
0.737626
0.733747
0.727889
0.719318
0.707104
0.689532
0.664785
0.624603
0.729812
0.72984
0.72989
0.72993
0.729925
0.729832
0.72959
0.729112
0.728287
0.726967
0.724964
0.722034
0.717863
0.712044
0.704057
0.693193
0.678606
0.658897
0.633258
0.599455
0.720101
0.720049
0.719913
0.719658
0.719248
0.718636
0.717755
0.716518
0.714811
0.712486
0.709361
0.705201
0.699714
0.692533
0.683206
0.67116
0.655777
0.636228
0.612177
0.582747
0.710466
0.710343
0.710039
0.70951
0.708724
0.707636
0.706176
0.704258
0.701768
0.698565
0.694476
0.689284
0.682726
0.674486
0.664188
0.651391
0.635646
0.616425
0.59336
0.565964
0.701013
0.700828
0.700374
0.699602
0.698483
0.696973
0.695006
0.692496
0.689335
0.68539
0.680501
0.674473
0.667075
0.658038
0.647055
0.633782
0.617866
0.598944
0.576657
0.550873
0.691835
0.691598
0.691014
0.690029
0.688619
0.686745
0.684342
0.681329
0.677604
0.673047
0.667511
0.660826
0.652792
0.643184
0.631749
0.618218
0.602313
0.58379
0.562341
0.538033
0.683014
0.68273
0.682035
0.680867
0.679208
0.677022
0.67425
0.670815
0.666624
0.661569
0.655521
0.648329
0.639826
0.629821
0.618112
0.604489
0.588731
0.570683
0.550071
0.527063
0.674617
0.674294
0.673504
0.672181
0.67031
0.667862
0.664781
0.660998
0.656428
0.650976
0.644527
0.636953
0.628112
0.617848
0.605996
0.592394
0.576866
0.559316
0.539498
0.517636
0.666704
0.666349
0.665479
0.664025
0.661977
0.659311
0.655977
0.65191
0.647036
0.641271
0.634516
0.626662
0.617588
0.607168
0.595268
0.581762
0.566512
0.549459
0.530384
0.509546
0.659325
0.658942
0.658006
0.656444
0.654251
0.651406
0.647865
0.643571
0.638458
0.632451
0.625467
0.617413
0.608189
0.59769
0.585809
0.572449
0.5575
0.54093
0.522547
0.502622
0.65252
0.652114
0.651124
0.649474
0.647162
0.644173
0.640467
0.635993
0.630694
0.624506
0.617355
0.609165
0.599852
0.58933
0.577514
0.564328
0.549686
0.533575
0.515829
0.496715
0.646323
0.645899
0.644865
0.643143
0.640736
0.637633
0.633797
0.629184
0.623743
0.617419
0.610152
0.601874
0.592517
0.582012
0.570289
0.557291
0.542949
0.527264
0.510097
0.491697
0.640761
0.640324
0.639254
0.637476
0.634993
0.631799
0.627862
0.623143
0.617596
0.611176
0.603828
0.595499
0.586131
0.575668
0.564054
0.551245
0.537188
0.521891
0.50524
0.487462
0.635857
0.635408
0.634311
0.632488
0.629947
0.626683
0.622669
0.61787
0.612246
0.605757
0.598359
0.590005
0.580647
0.57024
0.558739
0.546111
0.532315
0.517364
0.501167
0.483923
0.631628
0.63117
0.630051
0.628194
0.625608
0.622291
0.618219
0.613361
0.607682
0.601148
0.593719
0.585358
0.576023
0.565679
0.554288
0.541825
0.528261
0.513611
0.497803
0.481011
0.628086
0.627621
0.626487
0.624604
0.621984
0.618628
0.614514
0.609613
0.603896
0.597332
0.589888
0.581529
0.572224
0.56194
0.550649
0.538333
0.524968
0.51057
0.495088
0.478667
0.625242
0.624772
0.623626
0.621725
0.61908
0.615695
0.611551
0.606621
0.600878
0.594296
0.586845
0.578495
0.569219
0.55899
0.547785
0.53559
0.522388
0.508195
0.492974
0.476848
0.623102
0.622629
0.621475
0.619561
0.616899
0.613495
0.60933
0.604381
0.598622
0.592029
0.584576
0.576237
0.566986
0.556802
0.545664
0.533563
0.520485
0.506449
0.491425
0.475519
0.621673
0.621197
0.620038
0.618115
0.615443
0.612027
0.607849
0.602888
0.59712
0.590521
0.583068
0.574737
0.565505
0.555352
0.544262
0.532224
0.519232
0.505302
0.490415
0.474665
0.620964
0.620484
0.619322
0.617397
0.614719
0.611297
0.607113
0.602146
0.596374
0.589773
0.582321
0.573994
0.564772
0.554635
0.543568
0.531563
0.518614
0.504739
0.489927
0.474273
0.573222
0.51616
0.460965
0.404766
0.348772
0.295
0.243865
0.195426
0.150726
0.1103
0.56277
0.507805
0.454561
0.403669
0.352984
0.303853
0.257002
0.213012
0.171571
0.133452
0.548594
0.497281
0.446874
0.400612
0.354945
0.310229
0.267475
0.227147
0.188768
0.15303
0.534216
0.487655
0.440959
0.398657
0.357273
0.316365
0.276969
0.239536
0.203658
0.169975
0.521398
0.479364
0.436474
0.397514
0.359651
0.321969
0.285357
0.250328
0.216562
0.184641
0.510349
0.472217
0.432919
0.39684
0.361863
0.326911
0.292668
0.259676
0.227706
0.197328
0.500867
0.466069
0.430035
0.396479
0.36389
0.331243
0.299052
0.267824
0.237365
0.208336
0.49277
0.460824
0.427672
0.396322
0.365722
0.335004
0.304568
0.274984
0.245813
0.217938
0.48589
0.456377
0.425714
0.396282
0.367356
0.338244
0.309211
0.280618
0.253153
0.226326
0.480066
0.45262
0.424078
0.396298
0.368792
0.341046
0.313278
0.285874
0.259516
0.233588
0.475151
0.449452
0.422697
0.39633
0.370035
0.343462
0.31682
0.290485
0.264941
0.239819
0.471017
0.446786
0.421522
0.396354
0.37109
0.345516
0.319835
0.294377
0.269549
0.245151
0.467558
0.444548
0.420516
0.396352
0.37196
0.34723
0.322362
0.297651
0.273454
0.24969
0.464687
0.442677
0.419649
0.396314
0.37265
0.348627
0.324444
0.300372
0.276727
0.253513
0.462335
0.441124
0.418897
0.396233
0.373167
0.349728
0.326116
0.302583
0.279417
0.256676
0.460444
0.439852
0.418244
0.396106
0.373518
0.350552
0.327406
0.304322
0.281565
0.259227
0.458971
0.438828
0.417675
0.395931
0.373709
0.351113
0.32834
0.305621
0.283204
0.261204
0.457881
0.438023
0.417167
0.395688
0.373725
0.351403
0.32892
0.306494
0.284354
0.262633
0.457161
0.437432
0.416713
0.395364
0.373548
0.351402
0.329123
0.306924
0.285012
0.263517
0.456856
0.43717
0.416476
0.395148
0.373371
0.351291
0.329096
0.306997
0.285254
0.263897
)
;

boundaryField
{
    bottom
    {
        type            symmetryPlane;
    }
    right
    {
        type            fixedValue;
        value           uniform 0;
    }
    top
    {
        type            symmetryPlane;
    }
    left
    {
        type            zeroGradient;
    }
    cylinder
    {
        type            zeroGradient;
    }
    defaultFaces
    {
        type            empty;
    }
}


// ************************************************************************* //
