/*--------------------------------*- C++ -*----------------------------------*\
| =========                 |                                                 |
| \\      /  F ield         | OpenFOAM: The Open Source CFD Toolbox           |
|  \\    /   O peration     | Version:  4.1                                   |
|   \\  /    A nd           | Web:      www.OpenFOAM.org                      |
|    \\/     M anipulation  |                                                 |
\*---------------------------------------------------------------------------*/
FoamFile
{
    version     2.0;
    format      ascii;
    class       volScalarField;
    location    "10";
    object      p;
}
// * * * * * * * * * * * * * * * * * * * * * * * * * * * * * * * * * * * * * //

dimensions      [0 2 -2 0 0 0 0];

internalField   nonuniform List<scalar> 
2000
(
-0.0215925
-0.0121086
-0.00243174
0.00650164
0.0135955
0.0186864
0.0224283
0.0239802
0.0258949
0.0209071
-0.0403337
-0.0272395
-0.0151938
-0.00437205
0.00459932
0.0118415
0.0177987
0.0225714
0.0270405
0.0285195
-0.0640949
-0.0465698
-0.0318866
-0.0188108
-0.0070744
0.00353176
0.0132403
0.0221099
0.030453
0.0377103
-0.0930583
-0.0703622
-0.0526982
-0.0364324
-0.020341
-0.00474323
0.00996165
0.0234975
0.0362147
0.0467991
-0.126984
-0.0983376
-0.0770776
-0.0558086
-0.0332513
-0.0110939
0.00945084
0.0280364
0.0446399
0.0587085
-0.164132
-0.129346
-0.103083
-0.074242
-0.0431898
-0.0134325
0.0133296
0.0368193
0.0572364
0.0745977
-0.201639
-0.161171
-0.12725
-0.0881848
-0.0473731
-0.00974929
0.02304
0.0511464
0.0751087
0.0956973
-0.235163
-0.190099
-0.145354
-0.0941298
-0.0433347
0.0016862
0.0399353
0.072148
0.0994199
0.123058
-0.259898
-0.211028
-0.153311
-0.0892455
-0.029131
0.0223466
0.0652147
0.100883
0.131003
0.157123
-0.271501
-0.218818
-0.147451
-0.0714065
-0.0033371
0.0533691
0.0998722
0.138216
0.170512
0.19823
0.0563491
0.0502443
0.0468461
0.0433876
0.0393847
0.0349756
0.0302708
0.0253191
0.0200485
0.0142357
0.0534521
0.0478534
0.0446832
0.0413419
0.0374359
0.0331263
0.0285385
0.023772
0.0187955
0.0130796
0.0481572
0.0435602
0.0408301
0.0377944
0.0341724
0.0301512
0.0258795
0.02152
0.0171604
0.01188
0.0413695
0.0381011
0.03608
0.0336333
0.0305851
0.0271445
0.0234829
0.019776
0.0163297
0.012422
0.0339925
0.0322002
0.0311879
0.0296843
0.0275615
0.0250296
0.0222944
0.0194752
0.0171316
0.015465
0.0266467
0.0263396
0.0266341
0.0264452
0.0255857
0.0242188
0.0225866
0.0208644
0.019666
0.0209038
0.0194748
0.020652
0.0224827
0.0239324
0.0246089
0.0245476
0.024044
0.023381
0.0224051
0.0282417
0.0120674
0.0147964
0.0183667
0.0216832
0.0240364
0.025316
0.0258806
0.0262255
0.024379
0.0341895
0.0035309
0.00803764
0.0135073
0.0187539
0.0227718
0.0252807
0.0266954
0.0277564
0.0258611
0.0352544
-0.00728909
-0.000611541
0.00689096
0.0140193
0.0195634
0.0232402
0.0256048
0.0265487
0.0262912
0.028918
0.00782476
0.0012616
-0.00565817
-0.0128577
-0.0202229
-0.0276128
-0.0348473
-0.0417084
-0.0479443
-0.053271
-0.0573695
-0.0598913
-0.0604774
-0.0588352
-0.0548425
-0.0484282
-0.0391924
-0.0267525
-0.0126701
-0.00261833
0.00591632
-0.000699163
-0.00768343
-0.0150153
-0.0225579
-0.0301684
-0.0376644
-0.044821
-0.0513754
-0.0570358
-0.0614848
-0.0643647
-0.0653008
-0.0639228
-0.0599515
-0.0534661
-0.0440575
-0.0314174
-0.0166818
-0.00436682
0.00335492
-0.00333306
-0.0103943
-0.0179554
-0.0258107
-0.0338077
-0.0417641
-0.0494488
-0.0565857
-0.0628597
-0.067932
-0.071454
-0.0730293
-0.0722592
-0.0687728
-0.0621055
-0.0523216
-0.0391833
-0.0232887
-0.0073211
0.00159827
-0.00494291
-0.0120479
-0.0198782
-0.0281053
-0.036557
-0.0450528
-0.05336
-0.061197
-0.068234
-0.0740982
-0.0783938
-0.0807334
-0.080673
-0.0777086
-0.0713362
-0.06127
-0.0475178
-0.0301943
-0.0103622
0.00249554
-0.00472088
-0.0117056
-0.0196603
-0.0282436
-0.0371396
-0.046137
-0.0550158
-0.0635013
-0.0712592
-0.0779021
-0.0829996
-0.0861019
-0.0867649
-0.0844356
-0.0785277
-0.0683596
-0.0541821
-0.0357372
-0.013188
0.00565788
-0.00292567
-0.00958159
-0.0173368
-0.0261665
-0.0354504
-0.0448416
-0.0541458
-0.0631226
-0.0714362
-0.0786843
-0.0844197
-0.0881658
-0.0894258
-0.0876411
-0.0822019
-0.0725864
-0.0579173
-0.0386537
-0.0143347
0.00981753
-0.000597172
-0.00659017
-0.0136942
-0.0225872
-0.0321551
-0.041773
-0.0513034
-0.0605768
-0.0692489
-0.0768907
-0.0830369
-0.0872
-0.0888632
-0.0874641
-0.0823318
-0.0727997
-0.0583357
-0.0390551
-0.0144368
0.013619
0.00139679
-0.00357248
-0.00968315
-0.0184663
-0.0281035
-0.0376813
-0.0471907
-0.0565334
-0.0653305
-0.0731284
-0.0794521
-0.0838188
-0.0856803
-0.0845004
-0.0795908
-0.0702282
-0.0562515
-0.0375336
-0.0137321
0.015384
0.00357593
0.000290427
-0.00507734
-0.0137198
-0.0230875
-0.0324032
-0.0418282
-0.0511789
-0.0599738
-0.0677522
-0.0740477
-0.0784107
-0.08035
-0.0794486
-0.0747657
-0.0659804
-0.0526046
-0.0349537
-0.0127152
0.0113878
0.00570793
0.00420676
-0.0013506
-0.00897332
-0.0168402
-0.0251261
-0.0339684
-0.0429463
-0.0515029
-0.0591843
-0.0655165
-0.0700029
-0.0721236
-0.0714118
-0.0672157
-0.0593443
-0.0473879
-0.0314247
-0.0115233
0.0199791
0.0181581
0.0110741
0.0029102
-0.00485593
-0.0126102
-0.0208064
-0.0293542
-0.0378492
-0.0458368
-0.0529156
-0.0586617
-0.0625084
-0.0641754
-0.0632382
-0.059274
-0.0520137
-0.0413077
-0.0271399
-0.0100198
0.0207404
0.0173922
0.0109493
0.00393973
-0.00293502
-0.0100475
-0.0176032
-0.0253922
-0.0330209
-0.0401134
-0.046331
-0.0514675
-0.0543082
-0.0554275
-0.0542662
-0.0505304
-0.0439334
-0.0345839
-0.0223824
-0.00816574
0.0264582
0.0198463
0.0138937
0.00800179
0.00172026
-0.00510748
-0.0123212
-0.0195903
-0.0265448
-0.0328448
-0.0381508
-0.0420804
-0.0451395
-0.0461671
-0.0450476
-0.0417618
-0.0360681
-0.0282188
-0.0181024
-0.00661221
0.0346503
0.0255182
0.0192428
0.0137254
0.00769055
0.000972746
-0.00606345
-0.013001
-0.0194913
-0.0252844
-0.0301532
-0.0339432
-0.0365061
-0.0374436
-0.0365416
-0.0338398
-0.0291425
-0.0227486
-0.0145527
-0.00533989
0.0441493
0.0334543
0.0261821
0.0202984
0.0141929
0.0074952
0.000554026
-0.00619182
-0.0124058
-0.0179041
-0.0225169
-0.0261118
-0.0284893
-0.0295058
-0.0289584
-0.0269059
-0.0231944
-0.018119
-0.0115875
-0.00425779
0.0546099
0.0426593
0.0341114
0.0274626
0.0210557
0.0142857
0.00736223
0.000688844
-0.00540392
-0.0107592
-0.0152347
-0.0187598
-0.0211647
-0.0223919
-0.0222719
-0.0208768
-0.018089
-0.0141844
-0.00908753
-0.00335093
0.0653055
0.0522968
0.0425588
0.0350392
0.028181
0.0212293
0.0142372
0.00753811
0.00144764
-0.00389201
-0.0083678
-0.0119451
-0.0145004
-0.0160143
-0.0163518
-0.0155998
-0.0136664
-0.0108081
-0.00695945
-0.00259293
0.0756589
0.0619342
0.0512369
0.0428686
0.0354656
0.0282277
0.0210833
0.0142804
0.00810285
0.00267844
-0.00189863
-0.00562183
-0.00840021
-0.010247
-0.0110565
-0.0109292
-0.00978683
-0.0078733
-0.00512098
-0.0019501
0.0855498
0.0714006
0.0599472
0.0507888
0.0427955
0.0351937
0.0278278
0.0208613
0.0145332
0.00895229
0.00420325
0.000270949
-0.00277975
-0.00499146
-0.00627793
-0.00675354
-0.0063437
-0.00528851
-0.00350809
-0.00139564
0.0949937
0.0805692
0.0685035
0.0586309
0.0500463
0.0420388
0.0344038
0.0272289
0.0207065
0.0149214
0.00995356
0.00576809
0.00241151
-0.000183379
-0.0019418
-0.00299348
-0.00326091
-0.00298809
-0.0020762
-0.000910733
0.103917
0.0892976
0.0767371
0.0662391
0.0570939
0.0486695
0.0407398
0.0333246
0.0265774
0.0205607
0.0153459
0.0108797
0.00719904
0.00421622
0.00199991
0.000403564
-0.000488112
-0.000928723
-0.00079674
-0.00048291
0.112193
0.0974588
0.0845142
0.073482
0.0638229
0.0549898
0.0467541
0.0390893
0.0321006
0.025837
0.0203587
0.0155988
0.0115898
0.00822591
0.00557305
0.00346761
0.00200383
0.000915173
0.000347045
-0.000104103
0.119725
0.104959
0.0917288
0.0802462
0.0701237
0.0609016
0.052361
0.0444405
0.0372143
0.0307022
0.0249581
0.0199055
0.0155755
0.011847
0.00878532
0.00621103
0.00422811
0.00255644
0.00136367
0.000230918
0.126453
0.11172
0.0982854
0.0864251
0.0758905
0.0663084
0.0574767
0.0493086
0.0418521
0.0351009
0.0291012
0.0237688
0.0191353
0.0150676
0.0116313
0.00863368
0.00618683
0.00399908
0.00225589
0.000525447
0.132328
0.117671
0.104093
0.091918
0.0810226
0.0711166
0.062017
0.0536191
0.0459489
0.038977
0.0327414
0.027152
0.0222414
0.0178682
0.0140975
0.0107277
0.00787513
0.00524134
0.00302265
0.000781213
0.137298
0.122743
0.109067
0.0966336
0.0854297
0.0752414
0.0659068
0.0573064
0.0494462
0.0422783
0.0358337
0.0300183
0.0248646
0.0202269
0.0161682
0.0124823
0.00928562
0.00627896
0.00366136
0.000998564
0.141318
0.126873
0.113131
0.10049
0.0890317
0.0786104
0.069083
0.0603153
0.0522946
0.0449614
0.038341
0.0323373
0.0269814
0.022126
0.0178306
0.0138888
0.0104127
0.00710843
0.00417028
0.00117673
0.144368
0.130015
0.116221
0.103416
0.0917601
0.0811608
0.0714877
0.0625952
0.0544532
0.0469925
0.0402355
0.0340867
0.0285749
0.0235535
0.0190771
0.0149421
0.0112542
0.00772821
0.00454912
0.00131364
0.146495
0.132187
0.118332
0.105393
0.0935922
0.0828682
0.0730959
0.0641196
0.0558977
0.0483511
0.0415012
0.0352545
0.0296369
0.0245041
0.0199054
0.015642
0.0118114
0.00813949
0.00479861
0.00140693
0.147723
0.133418
0.11949
0.106447
0.0945488
0.08375
0.0739225
0.0649022
0.0566307
0.0490371
0.0421378
0.035842
0.0301691
0.0249815
0.0203187
0.0159934
0.0120878
0.00834722
0.0049204
0.00145773
0.220143
0.178709
0.143399
0.114023
0.0903761
0.071608
0.0567858
0.0441019
0.0340258
0.0162741
0.237964
0.197305
0.162223
0.132109
0.106999
0.0853061
0.0678511
0.0499841
0.0387594
0.0204184
0.253846
0.214403
0.18016
0.149811
0.12411
0.100174
0.0814411
0.0611073
0.0501635
0.0329371
0.267912
0.229674
0.196283
0.165816
0.140034
0.115119
0.0963222
0.0758672
0.0636952
0.0457723
0.280315
0.243146
0.210507
0.180115
0.154498
0.129466
0.110432
0.0897874
0.0752222
0.056805
0.291257
0.255095
0.223161
0.193087
0.167632
0.142672
0.122851
0.101813
0.0858
0.0677382
0.300949
0.265779
0.234516
0.204899
0.179509
0.154647
0.134161
0.113194
0.096841
0.0790161
0.309577
0.275368
0.244728
0.215619
0.190303
0.165689
0.145009
0.12438
0.107875
0.0899132
0.317281
0.283975
0.25392
0.225345
0.200207
0.175966
0.155328
0.13491
0.11815
0.100101
0.324163
0.291687
0.262193
0.234163
0.209289
0.185417
0.164833
0.144525
0.127585
0.109699
0.330297
0.298577
0.26962
0.242119
0.21753
0.193984
0.17346
0.153327
0.136342
0.118747
0.335729
0.304696
0.276241
0.249237
0.224928
0.201704
0.181279
0.16141
0.144421
0.127128
0.34049
0.310081
0.282084
0.255547
0.231506
0.208621
0.188315
0.168737
0.151725
0.134718
0.344599
0.314758
0.287172
0.261073
0.237285
0.21474
0.194542
0.17524
0.158191
0.141457
0.348069
0.318746
0.291524
0.26583
0.24227
0.220047
0.199936
0.180886
0.163798
0.147309
0.35091
0.322054
0.295153
0.269824
0.246463
0.22453
0.204492
0.185659
0.168534
0.152238
0.353131
0.324687
0.29807
0.273059
0.249874
0.228187
0.208214
0.189551
0.172388
0.15621
0.354743
0.326654
0.30029
0.275549
0.252523
0.231036
0.211125
0.192575
0.175369
0.159227
0.355747
0.327954
0.301809
0.277295
0.254423
0.233101
0.213257
0.19478
0.177537
0.161363
0.356081
0.328504
0.302502
0.27815
0.255413
0.23422
0.214454
0.196042
0.178804
0.1626
0.852874
0.85578
0.850273
0.837237
0.817501
0.790322
0.75242
0.698672
0.628789
0.583729
0.795111
0.793029
0.777949
0.756623
0.729962
0.695332
0.648331
0.583598
0.500964
0.446155
0.732465
0.723552
0.700714
0.672722
0.639665
0.597672
0.541853
0.466895
0.372618
0.309524
0.660499
0.646256
0.618782
0.586251
0.547887
0.499288
0.435588
0.351902
0.247627
0.178783
0.584481
0.565983
0.535326
0.499405
0.456678
0.402492
0.332179
0.241843
0.129998
0.0594641
0.509059
0.486699
0.453548
0.414964
0.368744
0.310123
0.234537
0.139302
0.0258752
-0.0447192
0.436521
0.410757
0.375859
0.335433
0.286781
0.225124
0.146201
0.0483069
-0.0614111
-0.130962
0.368192
0.339776
0.304125
0.262838
0.213028
0.149882
0.0700755
-0.0269977
-0.13066
-0.197143
0.305119
0.275132
0.240073
0.198984
0.14879
0.086108
0.00799625
-0.0850218
-0.180245
-0.242214
0.247139
0.218525
0.184655
0.144474
0.0954502
0.0349514
-0.0392014
-0.125124
-0.209379
-0.266475
1.18112
1.19782
1.21639
1.23685
1.25913
1.283
1.30774
1.33136
1.35181
1.37581
1.17743
1.19325
1.21114
1.23085
1.2522
1.27493
1.29827
1.32018
1.3386
1.36123
1.16971
1.18378
1.20031
1.21856
1.23808
1.25854
1.27909
1.29757
1.31212
1.3318
1.15733
1.1688
1.18335
1.19946
1.2163
1.23341
1.24986
1.26329
1.27212
1.28737
1.13947
1.14752
1.15954
1.17291
1.18628
1.19906
1.21017
1.21703
1.21838
1.22782
1.11522
1.11908
1.12805
1.13816
1.14737
1.15496
1.15963
1.15855
1.15076
1.15313
1.08381
1.08286
1.08846
1.09488
1.0993
1.10086
1.0981
1.08785
1.06943
1.06364
1.04382
1.0375
1.03985
1.04254
1.04177
1.03668
1.02574
1.00534
0.974993
0.960194
0.994993
0.983548
0.983255
0.981794
0.975094
0.962771
0.943073
0.911856
0.868649
0.844193
0.931033
0.920344
0.919542
0.913468
0.900226
0.880286
0.851447
0.808967
0.752403
0.717697
1.00272
1.00829
1.01451
1.02107
1.02769
1.03436
1.04115
1.04815
1.05539
1.06293
1.0708
1.07903
1.08766
1.09677
1.10644
1.11675
1.12779
1.13964
1.1524
1.16619
1.00271
1.00832
1.01453
1.02105
1.02762
1.03424
1.04098
1.04793
1.05511
1.06259
1.07038
1.0785
1.08701
1.09598
1.10547
1.11557
1.12634
1.13787
1.15022
1.1635
1.00275
1.00837
1.01452
1.02094
1.02742
1.03396
1.04062
1.04747
1.05454
1.06188
1.06947
1.07736
1.08562
1.09428
1.10341
1.11306
1.12328
1.13413
1.14561
1.15779
1.00278
1.00841
1.01444
1.02072
1.02707
1.03346
1.03996
1.04662
1.05349
1.06061
1.06792
1.07546
1.08329
1.09146
1.09999
1.10891
1.11823
1.12798
1.13805
1.14847
1.0028
1.00842
1.01429
1.02036
1.0265
1.03271
1.03901
1.04545
1.05206
1.05872
1.06554
1.07257
1.07981
1.08726
1.09491
1.10275
1.11075
1.11887
1.12688
1.13474
1.00279
1.00836
1.01401
1.01978
1.02563
1.03154
1.03753
1.04361
1.04978
1.05594
1.06217
1.0685
1.07491
1.08135
1.08779
1.09414
1.10032
1.1062
1.1114
1.11569
1.00272
1.00817
1.01354
1.01894
1.02442
1.02996
1.03559
1.04124
1.04672
1.05218
1.05764
1.06307
1.06838
1.07349
1.07831
1.08268
1.08642
1.08927
1.09079
1.09036
1.00256
1.00775
1.01275
1.01769
1.02276
1.02794
1.03301
1.03787
1.04263
1.04731
1.05183
1.0561
1.06003
1.06344
1.06622
1.06806
1.06878
1.06774
1.06457
1.0579
1.00231
1.00706
1.01169
1.01624
1.02075
1.02517
1.02951
1.03369
1.03767
1.04138
1.04474
1.04759
1.04981
1.05109
1.05131
1.04987
1.04684
1.04105
1.03282
1.01844
1.00214
1.00613
1.01001
1.01396
1.01791
1.02176
1.02543
1.02879
1.03179
1.03431
1.03624
1.03733
1.0375
1.03623
1.03354
1.02819
1.02069
1.00771
0.99188
0.964641
1.00152
1.00483
1.00809
1.01134
1.01459
1.01765
1.0204
1.02271
1.02451
1.02563
1.02598
1.02522
1.02322
1.01927
1.01337
1.00388
0.991238
0.971003
0.94467
0.898381
1.00121
1.00345
1.00575
1.00834
1.01095
1.01325
1.01508
1.01631
1.01692
1.01669
1.01554
1.01304
1.00911
1.00291
0.99453
0.982172
0.966447
0.943478
0.915736
0.877059
1.00116
1.00204
1.00314
1.00503
1.00705
1.00861
1.00951
1.00967
1.00909
1.00755
1.00497
1.00088
0.995248
0.987181
0.976887
0.962634
0.945314
0.921739
0.894796
0.859019
1.0004
1.00054
1.00077
1.00188
1.00322
1.00401
1.00397
1.00302
1.00124
0.998409
0.994468
0.988902
0.981733
0.972064
0.960229
0.944571
0.926242
0.902229
0.875672
0.840942
0.999973
0.999031
0.99817
0.998608
0.999425
0.999509
0.99851
0.996441
0.993471
0.989397
0.98417
0.977246
0.968706
0.957659
0.944562
0.9278
0.908712
0.884323
0.858015
0.824327
1.00033
0.997634
0.995311
0.995263
0.995767
0.995218
0.993254
0.990045
0.985902
0.980634
0.974204
0.966035
0.956271
0.944033
0.929884
0.912247
0.892577
0.868003
0.841999
0.809425
0.999476
0.996111
0.993136
0.992704
0.992802
0.991479
0.988413
0.983986
0.978665
0.972253
0.964689
0.955374
0.944502
0.931228
0.91619
0.897868
0.877767
0.853181
0.827501
0.795965
0.999659
0.995222
0.991836
0.991339
0.990979
0.988594
0.984148
0.978373
0.971864
0.964355
0.955718
0.945334
0.933449
0.919268
0.90347
0.884618
0.864198
0.839707
0.814327
0.783739
0.998321
0.993349
0.990898
0.991264
0.990592
0.986775
0.980575
0.973302
0.965611
0.957051
0.94738
0.935982
0.923154
0.908173
0.891717
0.872456
0.85179
0.827459
0.802346
0.772639
0.998066
0.991126
0.989571
0.991937
0.991199
0.985554
0.977357
0.968626
0.95987
0.950342
0.939683
0.92733
0.913629
0.897948
0.880921
0.861348
0.840486
0.816358
0.791481
0.762599
1.00188
0.995237
0.995793
0.997984
0.994238
0.985122
0.974546
0.964465
0.95476
0.944306
0.932672
0.919409
0.9049
0.888609
0.871087
0.851278
0.830256
0.806357
0.781685
0.753565
0.994162
1.00302
1.01623
1.01458
1.00188
0.986367
0.9727
0.961228
0.950549
0.939102
0.926447
0.912289
0.897025
0.880198
0.86224
0.84225
0.821094
0.79743
0.772935
0.745497
0.99788
1.01787
1.03616
1.02921
1.0082
0.986969
0.970704
0.958191
0.946734
0.934404
0.920818
0.905869
0.889955
0.872689
0.85437
0.834247
0.812987
0.789547
0.765212
0.73836
1.00052
1.02648
1.04655
1.03617
1.01026
0.985725
0.968063
0.955021
0.943047
0.93003
0.915692
0.900118
0.883687
0.866078
0.847466
0.82725
0.805914
0.782678
0.75849
0.732129
1.00155
1.0299
1.0498
1.03673
1.00822
0.982462
0.964631
0.951508
0.939233
0.92576
0.910929
0.894955
0.878161
0.860303
0.841463
0.821193
0.799811
0.776769
0.752714
0.726776
0.997902
1.02503
1.04631
1.03333
1.0044
0.978725
0.96091
0.947756
0.935216
0.921484
0.906477
0.890368
0.873372
0.855347
0.836334
0.816044
0.794643
0.771792
0.747854
0.72229
0.983332
0.989694
1.00967
1.00936
0.994663
0.976254
0.959551
0.945064
0.93136
0.917395
0.90253
0.886524
0.869453
0.851316
0.832172
0.811877
0.790475
0.767794
0.743961
0.718706
0.998932
0.965346
0.944231
0.95441
0.967597
0.967486
0.956234
0.941447
0.927233
0.913484
0.899045
0.883327
0.866327
0.84818
0.828983
0.808707
0.787331
0.764788
0.741067
0.716041
1.00087
0.966194
0.939474
0.946203
0.960343
0.962387
0.953097
0.939506
0.925482
0.911497
0.896913
0.881198
0.864231
0.846108
0.826899
0.80663
0.785272
0.762816
0.739196
0.71434
0.983581
0.990155
1.00453
0.99554
0.976741
0.961615
0.950179
0.938639
0.925597
0.911315
0.89617
0.880175
0.863171
0.845075
0.825872
0.805604
0.784251
0.761835
0.738279
0.713557
0.845222
0.784296
0.723169
0.656711
0.585769
0.515202
0.447491
0.383181
0.322995
0.268067
0.836612
0.774182
0.70991
0.646921
0.580954
0.514481
0.450863
0.390652
0.334646
0.283851
0.822384
0.762976
0.698154
0.637911
0.577289
0.515244
0.455238
0.398626
0.346145
0.297818
0.807257
0.752433
0.688829
0.63003
0.573547
0.515797
0.459137
0.405518
0.355897
0.30992
0.79276
0.742123
0.680817
0.623222
0.569836
0.516092
0.462712
0.411691
0.364495
0.320557
0.779231
0.732141
0.673731
0.617562
0.566459
0.516144
0.465903
0.417269
0.372133
0.329954
0.766704
0.722592
0.667269
0.612819
0.563507
0.515997
0.468656
0.422287
0.378949
0.3383
0.755159
0.713565
0.661297
0.608797
0.56103
0.515772
0.471
0.426774
0.385059
0.345756
0.74456
0.705101
0.655744
0.605331
0.559004
0.515563
0.472988
0.43075
0.390533
0.352439
0.734866
0.697209
0.650571
0.602301
0.557379
0.51543
0.474689
0.434244
0.395413
0.358425
0.726051
0.6899
0.645757
0.59962
0.556085
0.515395
0.476157
0.437283
0.399727
0.363757
0.718108
0.683199
0.641294
0.597215
0.555047
0.515447
0.477429
0.439898
0.403493
0.368464
0.711048
0.67714
0.637185
0.595025
0.554183
0.51555
0.478521
0.442113
0.406726
0.372563
0.704869
0.671745
0.633433
0.593004
0.553419
0.51566
0.479437
0.443951
0.409443
0.376067
0.699531
0.666995
0.63004
0.591133
0.552706
0.515736
0.480171
0.445431
0.411663
0.378989
0.695006
0.66289
0.627037
0.589428
0.55203
0.515753
0.480718
0.446565
0.413402
0.381339
0.691349
0.659506
0.624496
0.58793
0.551385
0.515685
0.481068
0.447368
0.414683
0.383128
0.688627
0.656918
0.622462
0.586629
0.550715
0.51546
0.481169
0.447823
0.415528
0.38438
0.686909
0.655219
0.621008
0.585535
0.549959
0.514975
0.48091
0.447833
0.415866
0.385112
0.686182
0.654503
0.620331
0.584893
0.549343
0.514396
0.480392
0.447431
0.415601
0.385063
)
;

boundaryField
{
    bottom
    {
        type            symmetryPlane;
    }
    right
    {
        type            fixedValue;
        value           uniform 0;
    }
    top
    {
        type            symmetryPlane;
    }
    left
    {
        type            fixedValue;
        value           uniform 1;
    }
    cylinder
    {
        type            zeroGradient;
    }
    defaultFaces
    {
        type            empty;
    }
}


// ************************************************************************* //
