/*--------------------------------*- C++ -*----------------------------------*\
| =========                 |                                                 |
| \\      /  F ield         | OpenFOAM: The Open Source CFD Toolbox           |
|  \\    /   O peration     | Version:  4.1                                   |
|   \\  /    A nd           | Web:      www.OpenFOAM.org                      |
|    \\/     M anipulation  |                                                 |
\*---------------------------------------------------------------------------*/
FoamFile
{
    version     2.0;
    format      ascii;
    class       volScalarField;
    location    "10";
    object      p;
}
// * * * * * * * * * * * * * * * * * * * * * * * * * * * * * * * * * * * * * //

dimensions      [0 2 -2 0 0 0 0];

internalField   nonuniform List<scalar> 
3800
(
-0.528198
-0.525222
-0.519193
-0.51284
-0.508379
-0.507041
-0.508341
-0.514919
-0.521653
-0.536534
-0.53269
-0.529664
-0.523336
-0.516659
-0.511214
-0.50782
-0.506708
-0.507758
-0.51018
-0.515486
-0.540748
-0.536872
-0.530136
-0.522617
-0.515545
-0.509252
-0.503828
-0.49956
-0.496229
-0.494265
-0.552478
-0.546838
-0.538514
-0.529499
-0.519593
-0.509108
-0.498724
-0.489438
-0.48069
-0.47479
-0.567977
-0.559485
-0.548671
-0.536898
-0.522437
-0.506602
-0.491219
-0.477081
-0.464547
-0.455313
-0.588304
-0.574378
-0.561119
-0.544283
-0.523306
-0.501468
-0.480988
-0.462738
-0.447008
-0.434716
-0.614278
-0.592318
-0.574674
-0.549947
-0.521191
-0.493119
-0.467899
-0.445957
-0.427454
-0.412454
-0.644171
-0.614798
-0.586993
-0.551738
-0.514879
-0.481046
-0.451571
-0.426461
-0.405456
-0.387743
-0.67008
-0.638245
-0.595922
-0.548319
-0.503585
-0.464654
-0.431603
-0.403842
-0.380547
-0.360531
-0.688572
-0.655189
-0.598285
-0.538751
-0.486762
-0.443412
-0.407435
-0.377589
-0.352512
-0.330914
-0.478079
-0.485293
-0.493611
-0.505002
-0.519045
-0.535066
-0.552664
-0.571633
-0.591732
-0.612244
-0.483316
-0.489914
-0.497873
-0.509045
-0.522932
-0.538845
-0.556353
-0.575203
-0.595187
-0.615778
-0.492371
-0.49771
-0.504986
-0.515637
-0.529077
-0.544607
-0.561765
-0.580219
-0.599808
-0.620472
-0.502805
-0.50641
-0.512624
-0.522349
-0.534892
-0.549561
-0.565904
-0.583536
-0.602226
-0.622453
-0.512344
-0.51393
-0.518648
-0.52691
-0.537949
-0.551128
-0.566046
-0.58238
-0.59976
-0.618369
-0.519503
-0.51907
-0.521875
-0.527956
-0.536758
-0.547771
-0.560638
-0.575133
-0.591124
-0.607687
-0.52386
-0.521757
-0.522274
-0.525477
-0.531276
-0.539469
-0.549815
-0.562011
-0.576753
-0.590849
-0.525818
-0.522691
-0.520853
-0.520762
-0.523049
-0.528008
-0.535664
-0.545475
-0.559293
-0.570303
-0.526301
-0.522853
-0.51899
-0.515805
-0.514751
-0.516745
-0.521991
-0.530245
-0.544016
-0.553754
-0.526586
-0.523275
-0.518005
-0.512632
-0.509267
-0.509387
-0.512751
-0.520859
-0.532035
-0.544211
-0.639669
-0.672882
-0.704362
-0.732898
-0.758198
-0.779741
-0.797475
-0.811342
-0.82151
-0.82809
-0.831073
-0.83028
-0.825561
-0.816858
-0.80417
-0.787035
-0.764893
-0.737125
-0.703162
-0.662574
-0.615215
-0.561363
-0.501851
-0.43811
-0.372091
-0.306109
-0.242543
-0.183462
-0.130428
-0.0844878
-0.0459086
-0.0148164
0.0095808
0.0278997
0.0410165
0.0498196
0.0551432
0.0577334
0.0582446
0.0572297
0.0551382
0.0523274
0.049075
0.0455918
0.0420334
0.0385116
0.035104
0.0318619
0.028817
0.025986
0.0233752
0.0209832
0.0188033
0.0168256
0.0150378
0.0134266
0.011978
0.0106785
0.00951447
0.00847343
0.00754282
0.00671198
0.00596976
0.00530738
0.00471509
0.0041859
0.00371131
0.00328588
0.00290217
0.00255612
0.00224076
0.00195372
0.00168708
0.0014416
0.00120535
0.000986743
0.000763276
0.000561021
0.000334122
0.00014638
-0.64369
-0.676761
-0.708192
-0.73658
-0.76174
-0.783156
-0.800769
-0.814521
-0.824555
-0.831022
-0.834033
-0.833401
-0.828887
-0.820813
-0.808831
-0.792467
-0.771197
-0.74441
-0.711481
-0.671908
-0.625463
-0.572292
-0.513127
-0.449366
-0.38298
-0.3163
-0.251922
-0.191984
-0.137866
-0.0909698
-0.0515151
-0.0196785
0.00531135
0.0241632
0.0377436
0.0469512
0.0526338
0.0555474
0.0563379
0.0555609
0.0536756
0.0510453
0.0479507
0.0446049
0.0411662
0.0377488
0.0344325
0.0312703
0.0282954
0.0255257
0.0229687
0.0206239
0.0184855
0.0165443
0.0147885
0.0132056
0.011782
0.0105047
0.00936022
0.00833656
0.0074214
0.00660429
0.00587433
0.00522287
0.00464041
0.00411993
0.0036533
0.00323486
0.00285774
0.00251735
0.00220765
0.00192519
0.0016636
0.0014218
0.00119043
0.000974593
0.000755667
0.000554314
0.000331141
0.000140245
-0.64934
-0.681942
-0.713163
-0.741415
-0.766449
-0.787795
-0.805343
-0.81906
-0.829052
-0.835477
-0.838554
-0.838265
-0.834436
-0.827148
-0.816122
-0.80097
-0.781155
-0.75603
-0.724902
-0.687154
-0.642439
-0.590677
-0.532426
-0.469073
-0.402642
-0.334977
-0.269347
-0.207814
-0.151757
-0.103506
-0.0628241
-0.0296924
-0.00356282
0.0163123
0.0308105
0.0408395
0.0472598
0.0508385
0.0522278
0.051971
0.0505345
0.0482954
0.0455441
0.0424987
0.0393218
0.0361325
0.0330147
0.0300256
0.0272016
0.0245637
0.0221218
0.0198776
0.0178273
0.0159632
0.0142752
0.0127517
0.0113804
0.0101491
0.00904523
0.00805742
0.00717405
0.00638506
0.00568018
0.0050509
0.00448842
0.00398554
0.00353503
0.00313064
0.00276681
0.00243771
0.00213939
0.00186606
0.0016146
0.00138004
0.00115829
0.000947845
0.00073845
0.000539113
0.000324506
0.000128027
-0.652494
-0.684605
-0.715673
-0.744109
-0.769327
-0.790902
-0.808669
-0.822614
-0.83284
-0.839533
-0.842872
-0.843058
-0.839959
-0.833526
-0.823639
-0.809905
-0.791788
-0.768675
-0.73989
-0.704421
-0.662012
-0.612324
-0.555662
-0.493298
-0.427001
-0.357993
-0.291494
-0.228671
-0.171537
-0.121623
-0.0793414
-0.0446434
-0.0170329
0.00423546
0.0200335
0.0312629
0.0387833
0.0433673
0.0456738
0.0462436
0.0455286
0.0439166
0.041714
0.0391505
0.0363956
0.0335746
0.0307775
0.0280672
0.0254856
0.0230586
0.0208003
0.0187162
0.0168055
0.0150633
0.0134819
0.0120518
0.0107623
0.00960281
0.00856214
0.00762987
0.00679557
0.00604982
0.00538339
0.00478799
0.00425591
0.00377975
0.0033536
0.00297047
0.00262658
0.00231453
0.00203303
0.00177354
0.0015369
0.00131353
0.00110545
0.00090366
0.000707739
0.000513627
0.000311492
0.000112294
-0.649085
-0.681388
-0.712843
-0.742123
-0.768035
-0.790331
-0.80884
-0.823479
-0.834357
-0.841682
-0.845679
-0.846544
-0.844269
-0.838809
-0.830101
-0.817799
-0.801377
-0.7803
-0.75383
-0.720223
-0.680347
-0.63308
-0.578533
-0.517566
-0.451945
-0.38406
-0.317175
-0.253537
-0.195331
-0.144021
-0.100194
-0.0638607
-0.0345923
-0.0116849
0.00570078
0.0184392
0.0273702
0.0332575
0.0367623
0.03843
0.0386991
0.0379473
0.0364938
0.0345852
0.0324049
0.0300871
0.0277299
0.025403
0.023155
0.021018
0.0190118
0.0171469
0.015427
0.0138511
0.0124147
0.0111112
0.00993252
0.00887
0.00791448
0.00705694
0.00628852
0.0056007
0.00498564
0.00443545
0.00394379
0.00350318
0.00310926
0.00275432
0.0024366
0.0021472
0.00188749
0.00164641
0.00142876
0.00122063
0.00102962
0.000840175
0.000660313
0.000476651
0.000292146
9.56885e-05
-0.636794
-0.670428
-0.703325
-0.733817
-0.761129
-0.78484
-0.804656
-0.820526
-0.832558
-0.840952
-0.845979
-0.847824
-0.846524
-0.842131
-0.834583
-0.8236
-0.808707
-0.789276
-0.764642
-0.733803
-0.696319
-0.651551
-0.599439
-0.54064
-0.476681
-0.410064
-0.343705
-0.280111
-0.221428
-0.169157
-0.124027
-0.0861541
-0.0552043
-0.0305509
-0.011415
0.00302875
0.0135838
0.0209899
0.0258996
0.0288616
0.0303166
0.0306217
0.0300908
0.028984
0.0275024
0.0257959
0.0239739
0.0221156
0.0202772
0.0184978
0.0168034
0.01521
0.0137265
0.0123565
0.0110996
0.00995278
0.00891102
0.00796817
0.00711758
0.00635199
0.00566454
0.00504783
0.00449571
0.00400088
0.00355861
0.00316145
0.00280677
0.0024863
0.00220023
0.00193855
0.00170493
0.00148649
0.00129117
0.00110225
0.000931182
0.000757902
0.000594637
0.000428014
0.000263406
7.93905e-05
-0.617616
-0.652969
-0.687335
-0.719278
-0.748373
-0.773939
-0.79559
-0.813274
-0.827036
-0.837003
-0.843413
-0.846476
-0.846486
-0.843293
-0.836909
-0.827138
-0.813589
-0.795665
-0.772653
-0.743801
-0.708472
-0.666076
-0.616476
-0.560218
-0.49869
-0.434105
-0.369165
-0.306417
-0.247975
-0.195334
-0.14931
-0.110147
-0.077645
-0.0512851
-0.0303739
-0.0141545
-0.00187509
0.00716752
0.0136042
0.0179797
0.0207426
0.0222438
0.0227765
0.0225972
0.0219184
0.0209076
0.0196903
0.018359
0.0169812
0.015605
0.0142633
0.0129785
0.0117649
0.0106308
0.00958014
0.00861352
0.00772951
0.00692472
0.00619523
0.00553582
0.00494184
0.00440721
0.0039277
0.00349675
0.00311137
0.00276435
0.00245473
0.00217407
0.00192422
0.00169461
0.00149058
0.00129853
0.00112807
0.000961683
0.000813103
0.000661124
0.000524999
0.00037117
0.000228165
6.40171e-05
-0.596491
-0.632545
-0.667066
-0.700053
-0.730844
-0.75812
-0.781525
-0.801114
-0.816872
-0.828788
-0.837065
-0.841861
-0.843082
-0.841277
-0.836179
-0.827629
-0.815286
-0.798623
-0.776997
-0.749712
-0.716154
-0.675889
-0.628841
-0.575503
-0.517068
-0.45543
-0.392985
-0.332123
-0.274828
-0.22252
-0.176071
-0.135889
-0.101953
-0.0738976
-0.0511505
-0.0330495
-0.0189148
-0.00809341
1.14777e-05
0.00592656
0.0100996
0.0128976
0.014613
0.0154888
0.0157321
0.0155187
0.0149878
0.0142475
0.0133798
0.0124454
0.0114881
0.0105383
0.00961725
0.00873889
0.00791208
0.00714148
0.00642934
0.00577527
0.00517823
0.00463513
0.00414366
0.0036992
0.00329947
0.00293884
0.00261599
0.00232427
0.00206418
0.00182754
0.00161739
0.00142335
0.00125166
0.00108902
0.000945439
0.00080424
0.000679452
0.000550448
0.000434698
0.000306233
0.000187727
4.94589e-05
-0.578684
-0.611885
-0.644303
-0.678149
-0.710949
-0.740204
-0.765611
-0.787249
-0.804986
-0.818719
-0.828657
-0.835132
-0.838074
-0.837381
-0.833276
-0.825724
-0.814356
-0.798715
-0.778265
-0.752409
-0.720596
-0.682462
-0.638034
-0.587902
-0.533217
-0.475412
-0.416416
-0.358306
-0.302885
-0.25148
-0.204982
-0.163963
-0.128626
-0.0988027
-0.0740811
-0.0539221
-0.0377383
-0.0249426
-0.014982
-0.00735625
-0.0016283
0.00257059
0.00554663
0.00755813
0.00882049
0.00950738
0.00976273
0.00970308
0.00942148
0.00899109
0.00846762
0.00789235
0.00729543
0.00669822
0.00611592
0.00555837
0.00503231
0.00454096
0.0040866
0.00366864
0.0032873
0.0029397
0.00262554
0.00234039
0.00208457
0.00185223
0.00164513
0.00145582
0.00128808
0.00113237
0.000995173
0.000864339
0.000749402
0.000635665
0.000535667
0.000431562
0.000339218
0.000236715
0.000144137
3.55473e-05
-0.570371
-0.595529
-0.621744
-0.653115
-0.685134
-0.71475
-0.741406
-0.764814
-0.784606
-0.800585
-0.812697
-0.82118
-0.82601
-0.826749
-0.824025
-0.817697
-0.807399
-0.792751
-0.773326
-0.748652
-0.718308
-0.682053
-0.639959
-0.592516
-0.540719
-0.48596
-0.429939
-0.374482
-0.321278
-0.271615
-0.226199
-0.185586
-0.150067
-0.119596
-0.0938808
-0.07249
-0.0549296
-0.0406908
-0.0292821
-0.0202494
-0.0131871
-0.00774201
-0.00361329
-0.000547651
0.00166677
0.00320812
0.00422696
0.00484719
0.00516719
0.005265
0.00520323
0.00503065
0.00478463
0.00449312
0.00417728
0.00385213
0.00352903
0.00321508
0.00291604
0.00263417
0.00237234
0.00212972
0.00190808
0.00170447
0.00152079
0.00135236
0.00120204
0.00106347
0.00094094
0.000826253
0.000725641
0.000628846
0.000544264
0.00045979
0.00038586
0.000308299
0.000240245
0.000165116
9.91416e-05
2.18057e-05
-0.562319
-0.581632
-0.608166
-0.638722
-0.669739
-0.699221
-0.726256
-0.750221
-0.770662
-0.787313
-0.799995
-0.808666
-0.814048
-0.815066
-0.812276
-0.80562
-0.794757
-0.779352
-0.759064
-0.733541
-0.702515
-0.665921
-0.624003
-0.577395
-0.527161
-0.474676
-0.421491
-0.36918
-0.31915
-0.272481
-0.229829
-0.191591
-0.157939
-0.128808
-0.103945
-0.0829815
-0.0654975
-0.051062
-0.0392568
-0.0296912
-0.0220108
-0.0159022
-0.0110947
-0.00735674
-0.00449069
-0.0023288
-0.000729222
0.000425832
0.00123276
0.00177065
0.00210427
0.00228519
0.00235408
0.00234231
0.00227447
0.00216885
0.0020399
0.00189752
0.00175007
0.00160211
0.00145859
0.00132054
0.00119138
0.00106965
0.000958513
0.000854563
0.000761514
0.000674166
0.000597275
0.000523892
0.000460153
0.000397445
0.000343348
0.000287921
0.000240175
0.000189024
0.000145234
9.64913e-05
5.61881e-05
9.04538e-06
-0.552037
-0.575914
-0.602898
-0.63121
-0.659869
-0.68776
-0.713746
-0.736925
-0.756739
-0.7729
-0.785369
-0.794074
-0.797571
-0.797871
-0.794454
-0.786941
-0.775089
-0.758672
-0.737454
-0.711221
-0.679871
-0.643511
-0.602534
-0.557658
-0.509906
-0.460528
-0.410868
-0.362235
-0.315776
-0.272381
-0.232613
-0.196764
-0.164947
-0.137116
-0.113079
-0.0925435
-0.0751674
-0.0605933
-0.0484692
-0.0384598
-0.0302556
-0.0235783
-0.0181831
-0.0138569
-0.0104157
-0.00770193
-0.00558127
-0.00394008
-0.00268332
-0.00173216
-0.00102159
-0.000498953
-0.000121847
0.000143244
0.000323279
0.000438977
0.000507217
0.000540225
0.000548559
0.000538827
0.000517853
0.000488451
0.000455511
0.00041917
0.00038363
0.000347003
0.000313558
0.000279682
0.000250129
0.000219786
0.000194087
0.000166741
0.000143869
0.000118373
9.72254e-05
7.27621e-05
5.33888e-05
3.05631e-05
1.5234e-05
-3.58453e-06
-0.540941
-0.570628
-0.596836
-0.622118
-0.647801
-0.673432
-0.697749
-0.719593
-0.738236
-0.753317
-0.764683
-0.77205
-0.775528
-0.775334
-0.771242
-0.762999
-0.750466
-0.733515
-0.712007
-0.685847
-0.655068
-0.619894
-0.580789
-0.538462
-0.493838
-0.447981
-0.402007
-0.356992
-0.313882
-0.273423
-0.236113
-0.202232
-0.171896
-0.145095
-0.121698
-0.101479
-0.084162
-0.0694465
-0.0570317
-0.0466263
-0.0379566
-0.0307728
-0.0248513
-0.0199956
-0.016034
-0.0128178
-0.0102189
-0.00812769
-0.0064514
-0.00511261
-0.00404668
-0.00320043
-0.00253014
-0.0020006
-0.00158288
-0.00125416
-0.000995472
-0.000792513
-0.00063279
-0.000507786
-0.000409029
-0.000331993
-0.000270493
-0.000222805
-0.000183858
-0.000153964
-0.000128499
-0.000109356
-9.20273e-05
-7.9588e-05
-6.75437e-05
-5.96894e-05
-5.14987e-05
-4.71783e-05
-4.17726e-05
-3.96996e-05
-3.47493e-05
-3.22493e-05
-2.31189e-05
-1.51578e-05
-0.530339
-0.561553
-0.586677
-0.609458
-0.63241
-0.65571
-0.678191
-0.698563
-0.715934
-0.729886
-0.740218
-0.746955
-0.750384
-0.749825
-0.745205
-0.736491
-0.723647
-0.706609
-0.685311
-0.659746
-0.630038
-0.596477
-0.55954
-0.519882
-0.478313
-0.435741
-0.393115
-0.351344
-0.311235
-0.273429
-0.238379
-0.206353
-0.17747
-0.151737
-0.129058
-0.109258
-0.0921119
-0.077369
-0.0647736
-0.0540744
-0.045032
-0.0374244
-0.0310502
-0.0257297
-0.0213043
-0.0176348
-0.0146
-0.0120953
-0.0100314
-0.0083328
-0.00693549
-0.00578612
-0.00484011
-0.0040609
-0.003418
-0.00288682
-0.0024466
-0.00208119
-0.00177642
-0.001522
-0.00130802
-0.00112832
-0.000975586
-0.000846537
-0.000735381
-0.000640861
-0.000558121
-0.00048733
-0.000424313
-0.000370104
-0.000321155
-0.000278872
-0.000240203
-0.00020668
-0.000175069
-0.000147138
-0.000118369
-9.15314e-05
-5.88419e-05
-2.60786e-05
-0.517845
-0.548706
-0.573444
-0.594841
-0.615815
-0.637143
-0.657946
-0.676946
-0.69317
-0.706149
-0.71571
-0.72189
-0.7248
-0.723801
-0.7188
-0.709842
-0.696952
-0.680123
-0.659342
-0.634668
-0.606279
-0.574494
-0.539775
-0.502717
-0.464033
-0.424509
-0.384956
-0.346153
-0.308784
-0.273406
-0.240424
-0.21009
-0.182532
-0.157773
-0.135753
-0.116343
-0.0993654
-0.0846136
-0.0718716
-0.0609231
-0.0515583
-0.0435796
-0.0368052
-0.0310706
-0.0262288
-0.0221497
-0.0187189
-0.0158369
-0.0134176
-0.0113873
-0.00968306
-0.00825156
-0.00704776
-0.00603415
-0.005179
-0.00445629
-0.00384377
-0.00332371
-0.00288046
-0.00250216
-0.00217764
-0.0018992
-0.00165856
-0.00145094
-0.00126995
-0.00111282
-0.000974518
-0.000853544
-0.000746077
-0.000651203
-0.000566252
-0.000490414
-0.000421922
-0.000359922
-0.000302673
-0.000249703
-0.000197696
-0.000147523
-9.23035e-05
-3.65154e-05
-0.503261
-0.534352
-0.55929
-0.580081
-0.599753
-0.619516
-0.638837
-0.656558
-0.671712
-0.683786
-0.692599
-0.698112
-0.700342
-0.698886
-0.69363
-0.684602
-0.67185
-0.655401
-0.635293
-0.61163
-0.584618
-0.554584
-0.521963
-0.487298
-0.451218
-0.41441
-0.377573
-0.341374
-0.306408
-0.273162
-0.242004
-0.213178
-0.186816
-0.162959
-0.141575
-0.122566
-0.105793
-0.0910849
-0.0782577
-0.0671248
-0.0575026
-0.0492155
-0.0420997
-0.0360053
-0.030797
-0.0263535
-0.0225675
-0.0193443
-0.0166015
-0.0142674
-0.0122805
-0.0105879
-0.00914446
-0.00791204
-0.00685802
-0.0059552
-0.00518016
-0.00451377
-0.00393915
-0.00344304
-0.00301314
-0.00264036
-0.00231558
-0.0020326
-0.00178454
-0.00156714
-0.00137531
-0.00120593
-0.00105552
-0.00092135
-0.000801535
-0.00069324
-0.000595799
-0.000506275
-0.000424155
-0.000347034
-0.000272543
-0.000200144
-0.000123538
-4.63228e-05
-0.489198
-0.520415
-0.545445
-0.565955
-0.584787
-0.603334
-0.621358
-0.637893
-0.652032
-0.663242
-0.671314
-0.676171
-0.677776
-0.675926
-0.670512
-0.661527
-0.64901
-0.633017
-0.613625
-0.590971
-0.565279
-0.536868
-0.506149
-0.473617
-0.439835
-0.405405
-0.370937
-0.337013
-0.304152
-0.272789
-0.243258
-0.215791
-0.190521
-0.167502
-0.14672
-0.128107
-0.11155
-0.0969102
-0.0840329
-0.0727572
-0.0629224
-0.054373
-0.0469617
-0.0405521
-0.0350194
-0.030251
-0.0261459
-0.0226145
-0.0195777
-0.0169664
-0.0147202
-0.0127871
-0.0111221
-0.00968653
-0.00844727
-0.00737617
-0.00644882
-0.00564491
-0.00494655
-0.00433917
-0.00380957
-0.00334734
-0.00294263
-0.00258793
-0.00227594
-0.00200104
-0.00175805
-0.00154236
-0.00135081
-0.00117898
-0.00102569
-0.00088625
-0.000760969
-0.000645052
-0.000539007
-0.000438762
-0.000342778
-0.000249336
-0.00015256
-5.54333e-05
-0.47708
-0.507429
-0.532218
-0.552589
-0.57091
-0.588541
-0.60547
-0.620939
-0.634145
-0.644563
-0.651959
-0.656238
-0.657355
-0.655204
-0.649698
-0.640809
-0.628566
-0.613043
-0.59435
-0.572648
-0.548169
-0.521222
-0.492195
-0.461541
-0.429768
-0.39741
-0.365003
-0.33306
-0.302041
-0.272335
-0.244246
-0.217992
-0.193708
-0.171454
-0.151233
-0.132998
-0.116661
-0.10211
-0.0892132
-0.0778324
-0.0678271
-0.059059
-0.0513957
-0.0447129
-0.0388961
-0.0338403
-0.029451
-0.025643
-0.022341
-0.0194781
-0.0169957
-0.0148426
-0.0129739
-0.0113511
-0.00994048
-0.0087132
-0.0076441
-0.00671189
-0.00589779
-0.00518613
-0.00456288
-0.00401647
-0.0035364
-0.003114
-0.00274155
-0.0024122
-0.00212071
-0.00186108
-0.00163044
-0.00142283
-0.00123765
-0.00106858
-0.000916764
-0.000775729
-0.000646894
-0.000524684
-0.000408347
-0.000295072
-0.000179411
-6.3833e-05
-0.466409
-0.495322
-0.519697
-0.540011
-0.558046
-0.575014
-0.591052
-0.605604
-0.617988
-0.627712
-0.634528
-0.638334
-0.639083
-0.636708
-0.631146
-0.622367
-0.610403
-0.595339
-0.577307
-0.556482
-0.533099
-0.507459
-0.479926
-0.45092
-0.420897
-0.390338
-0.35972
-0.3295
-0.300088
-0.271834
-0.245018
-0.219842
-0.196441
-0.174882
-0.15518
-0.137303
-0.121187
-0.106737
-0.0938438
-0.0823882
-0.0722468
-0.0632967
-0.0554189
-0.0485002
-0.042435
-0.037126
-0.0324842
-0.0284293
-0.0248891
-0.0217994
-0.0191029
-0.0167496
-0.0146951
-0.0129007
-0.0113326
-0.00996139
-0.00876134
-0.0077103
-0.00678877
-0.00598011
-0.00526958
-0.00464458
-0.00409405
-0.00360823
-0.00317909
-0.00279863
-0.00246155
-0.00216059
-0.00189311
-0.00165178
-0.00143651
-0.00123949
-0.00106261
-0.000897868
-0.000747534
-0.000604624
-0.00046918
-0.000337327
-0.000204121
-7.15106e-05
-0.456496
-0.484112
-0.508066
-0.528339
-0.546212
-0.562706
-0.578038
-0.591824
-0.603503
-0.612632
-0.618962
-0.622385
-0.622847
-0.6203
-0.614703
-0.606042
-0.594352
-0.579726
-0.562307
-0.54228
-0.519881
-0.4954
-0.46918
-0.44161
-0.413107
-0.384107
-0.355039
-0.326312
-0.298297
-0.271312
-0.245613
-0.221392
-0.198779
-0.177846
-0.158619
-0.141078
-0.125175
-0.110834
-0.0979609
-0.0864543
-0.0762054
-0.0671049
-0.0590455
-0.0519239
-0.0456429
-0.0401119
-0.0352474
-0.0309733
-0.0272207
-0.0239275
-0.0210385
-0.0185044
-0.0162814
-0.014331
-0.0126193
-0.0111166
-0.00979649
-0.0086363
-0.00761589
-0.00671776
-0.0059266
-0.00522886
-0.00461303
-0.00406835
-0.00358654
-0.00315853
-0.00277898
-0.0024395
-0.00213764
-0.00186483
-0.00162144
-0.00139831
-0.00119799
-0.00101108
-0.000840662
-0.000678412
-0.000525202
-0.00037608
-0.000226709
-7.84597e-05
-0.447361
-0.473968
-0.497505
-0.5177
-0.535458
-0.551606
-0.566386
-0.579541
-0.590623
-0.599245
-0.605167
-0.608273
-0.608504
-0.605826
-0.600216
-0.591676
-0.58025
-0.566034
-0.549177
-0.529869
-0.508343
-0.484881
-0.459808
-0.433484
-0.406297
-0.378642
-0.350911
-0.323476
-0.296672
-0.270789
-0.246067
-0.222685
-0.200771
-0.180399
-0.161602
-0.144371
-0.12867
-0.114439
-0.101598
-0.0900587
-0.0797259
-0.070502
-0.0622897
-0.0549948
-0.0485274
-0.042803
-0.0377433
-0.033276
-0.0293352
-0.0258612
-0.0228002
-0.0201041
-0.0177296
-0.0156387
-0.0137972
-0.0121752
-0.0107461
-0.00948662
-0.00837604
-0.00739619
-0.00653124
-0.00576685
-0.00509109
-0.00449235
-0.00396207
-0.00349029
-0.0030716
-0.00269659
-0.002363
-0.00206111
-0.00179172
-0.00154443
-0.00132244
-0.001115
-0.000926041
-0.000745901
-0.000576338
-0.00041131
-0.000247181
-8.46847e-05
-0.439295
-0.464991
-0.488081
-0.508152
-0.52581
-0.541699
-0.556048
-0.568687
-0.579269
-0.587461
-0.593037
-0.595879
-0.595925
-0.593151
-0.587548
-0.579131
-0.567952
-0.554113
-0.537763
-0.519093
-0.498336
-0.475762
-0.451683
-0.426436
-0.40038
-0.373882
-0.347299
-0.320973
-0.295212
-0.270283
-0.246409
-0.22376
-0.20246
-0.182585
-0.164172
-0.147223
-0.131711
-0.117587
-0.104785
-0.0932275
-0.0828302
-0.0735056
-0.0651655
-0.0577235
-0.0510963
-0.0452049
-0.0399754
-0.0353392
-0.0312331
-0.0275997
-0.0243865
-0.0215466
-0.0190373
-0.0168209
-0.0148633
-0.0131344
-0.0116074
-0.0102585
-0.00906658
-0.00801291
-0.0070812
-0.00625643
-0.0055263
-0.00487846
-0.00430414
-0.00379254
-0.00333819
-0.00293081
-0.00256825
-0.00223984
-0.0019467
-0.00167735
-0.00143555
-0.00120935
-0.00100346
-0.000806957
-0.000622521
-0.000443002
-0.000265547
-9.01981e-05
-0.432367
-0.45715
-0.479771
-0.499694
-0.517266
-0.532958
-0.54697
-0.559194
-0.56936
-0.57719
-0.582477
-0.585101
-0.585003
-0.582162
-0.57658
-0.568283
-0.557331
-0.543829
-0.527928
-0.509818
-0.489728
-0.467923
-0.444698
-0.420373
-0.395284
-0.369771
-0.344168
-0.318789
-0.293919
-0.269808
-0.246663
-0.224648
-0.203882
-0.184442
-0.166369
-0.149672
-0.134332
-0.12031
-0.10755
-0.0959845
-0.0855382
-0.0761322
-0.0676862
-0.0601205
-0.0533574
-0.0473231
-0.0419474
-0.037165
-0.0329153
-0.0291428
-0.0257966
-0.0228305
-0.0202027
-0.0178756
-0.0158154
-0.0139919
-0.012378
-0.0109496
-0.00968529
-0.0085658
-0.00757449
-0.00669575
-0.00591699
-0.00522518
-0.00461137
-0.00406404
-0.00357768
-0.0031412
-0.0027526
-0.00240032
-0.00208581
-0.00179659
-0.00153695
-0.00129385
-0.00107271
-0.000861471
-0.000663689
-0.000471148
-0.000281819
-9.50196e-05
-0.426449
-0.450367
-0.47254
-0.492316
-0.509818
-0.525361
-0.53911
-0.551001
-0.560829
-0.568359
-0.573406
-0.575854
-0.575644
-0.572758
-0.567205
-0.559021
-0.548272
-0.535067
-0.519556
-0.50193
-0.482413
-0.461263
-0.438763
-0.415219
-0.390946
-0.366266
-0.341488
-0.316908
-0.292791
-0.269373
-0.246849
-0.225374
-0.205066
-0.186001
-0.168224
-0.151749
-0.136563
-0.122635
-0.109917
-0.0983508
-0.0878678
-0.0783968
-0.0698639
-0.0621952
-0.0553181
-0.0491628
-0.0436629
-0.0387557
-0.034383
-0.0304909
-0.0270299
-0.0239548
-0.0212242
-0.0188011
-0.0166517
-0.0147456
-0.0130559
-0.011558
-0.0102303
-0.00905307
-0.00800945
-0.00708328
-0.00626172
-0.0055312
-0.00488259
-0.00430375
-0.00378914
-0.00332697
-0.00291536
-0.00254197
-0.00220856
-0.00190175
-0.00162634
-0.00136827
-0.00113366
-0.000909349
-0.000699794
-0.000495745
-0.000296009
-9.91693e-05
-0.421421
-0.444592
-0.466371
-0.486017
-0.503461
-0.51889
-0.532435
-0.544062
-0.553618
-0.560906
-0.565759
-0.568066
-0.56777
-0.564854
-0.559334
-0.551251
-0.540679
-0.527728
-0.51255
-0.495334
-0.4763
-0.455698
-0.433805
-0.41091
-0.387316
-0.363327
-0.339235
-0.315318
-0.291828
-0.268987
-0.246981
-0.225961
-0.206038
-0.187291
-0.169766
-0.153481
-0.138429
-0.124585
-0.111908
-0.100345
-0.0898348
-0.0803125
-0.0717094
-0.0639563
-0.0569851
-0.0507293
-0.0451255
-0.0401137
-0.0356375
-0.0316446
-0.0280865
-0.0249189
-0.0221011
-0.0195961
-0.0173706
-0.0153941
-0.0136395
-0.012082
-0.0107
-0.00947326
-0.00838467
-0.0074177
-0.0065593
-0.00579543
-0.00511681
-0.0045108
-0.00397178
-0.00348743
-0.00305592
-0.00266429
-0.00231452
-0.00199251
-0.00170344
-0.0014324
-0.00118614
-0.000950515
-0.000730798
-0.000516797
-0.000308127
-0.000102668
-0.417242
-0.439806
-0.461259
-0.480793
-0.49819
-0.513531
-0.526916
-0.538339
-0.54768
-0.554776
-0.559476
-0.561673
-0.56131
-0.558376
-0.552889
-0.544894
-0.53447
-0.521732
-0.50683
-0.489951
-0.471313
-0.451161
-0.429761
-0.407395
-0.384352
-0.360923
-0.337387
-0.314009
-0.291028
-0.268657
-0.247075
-0.226425
-0.206819
-0.188334
-0.171018
-0.154891
-0.139952
-0.12618
-0.113539
-0.101982
-0.0914529
-0.081891
-0.0732323
-0.0654117
-0.0583644
-0.0520271
-0.0463388
-0.0412414
-0.0366803
-0.0326044
-0.0289663
-0.0257224
-0.0228324
-0.0202598
-0.0179711
-0.0159361
-0.0141276
-0.0125206
-0.0110932
-0.00982513
-0.008699
-0.00769793
-0.00680873
-0.00601695
-0.00531321
-0.00468442
-0.00412495
-0.00362199
-0.00317378
-0.00276686
-0.00240335
-0.00206857
-0.00176803
-0.0014861
-0.00123004
-0.000984904
-0.000756667
-0.000534311
-0.000318191
-0.000105538
-0.413908
-0.435999
-0.457195
-0.476639
-0.493996
-0.509267
-0.522532
-0.533798
-0.542976
-0.549925
-0.554507
-0.556621
-0.55621
-0.553264
-0.547806
-0.539884
-0.529581
-0.517012
-0.50233
-0.485718
-0.467393
-0.447594
-0.426582
-0.404631
-0.38202
-0.359029
-0.335928
-0.312972
-0.29039
-0.268388
-0.247138
-0.226781
-0.207425
-0.189147
-0.171997
-0.155998
-0.14115
-0.127437
-0.114827
-0.103276
-0.0927336
-0.0831419
-0.0744407
-0.0665679
-0.0594614
-0.0530603
-0.0473055
-0.0421407
-0.0375126
-0.0333712
-0.0296697
-0.0263652
-0.0234179
-0.0207914
-0.0184524
-0.0163707
-0.0145191
-0.0128725
-0.0114089
-0.0101077
-0.00895151
-0.00792312
-0.0070092
-0.00619503
-0.00547111
-0.00482403
-0.00424811
-0.00373019
-0.00326855
-0.00284931
-0.00247475
-0.0021297
-0.00181992
-0.00152921
-0.00126526
-0.00101247
-0.000777376
-0.000548299
-0.000326213
-0.000107799
-0.411403
-0.43315
-0.454163
-0.473542
-0.49087
-0.506089
-0.519264
-0.530416
-0.539475
-0.546318
-0.550815
-0.552869
-0.552424
-0.549472
-0.544037
-0.536171
-0.525959
-0.513517
-0.498998
-0.482586
-0.464493
-0.444956
-0.424231
-0.402585
-0.380293
-0.357625
-0.334846
-0.3122
-0.289913
-0.268183
-0.247179
-0.227038
-0.207868
-0.189745
-0.172719
-0.156815
-0.142036
-0.128368
-0.115782
-0.104238
-0.0936861
-0.0840733
-0.0753413
-0.0674303
-0.0602803
-0.0538322
-0.0480283
-0.0428136
-0.0381358
-0.0339456
-0.030197
-0.0268474
-0.0238573
-0.0211905
-0.0188139
-0.0166973
-0.0148134
-0.0131371
-0.0116463
-0.0103203
-0.00914151
-0.00809259
-0.0071601
-0.00632909
-0.00558999
-0.00492914
-0.00434084
-0.00381166
-0.0033399
-0.00291139
-0.0025285
-0.00217571
-0.00185896
-0.00156165
-0.00129174
-0.00103317
-0.000792893
-0.00055877
-0.000332198
-0.000109468
-0.409665
-0.431216
-0.452128
-0.471476
-0.48879
-0.503978
-0.517096
-0.528173
-0.537154
-0.543927
-0.54837
-0.550384
-0.549918
-0.546963
-0.541544
-0.533716
-0.523564
-0.511208
-0.496798
-0.480517
-0.462578
-0.443214
-0.422678
-0.401234
-0.379151
-0.356697
-0.334129
-0.311688
-0.289595
-0.268045
-0.247203
-0.227206
-0.208158
-0.190138
-0.173195
-0.157354
-0.142622
-0.128984
-0.116414
-0.104874
-0.0943175
-0.0846911
-0.075939
-0.0680031
-0.0608246
-0.0543455
-0.0485092
-0.0432616
-0.0385509
-0.0343283
-0.0305485
-0.0271689
-0.0241503
-0.0214568
-0.0190552
-0.0169153
-0.0150099
-0.0133139
-0.011805
-0.0104624
-0.00926852
-0.00820589
-0.00726101
-0.00641875
-0.0056695
-0.00499945
-0.00440286
-0.00386615
-0.00338762
-0.00295292
-0.00256443
-0.00220649
-0.00188505
-0.00158336
-0.00130941
-0.00104704
-0.000803168
-0.000565447
-0.000336108
-0.000110591
-0.408678
-0.430175
-0.451064
-0.470414
-0.487733
-0.502913
-0.516007
-0.527049
-0.535994
-0.542734
-0.54715
-0.549146
-0.548671
-0.545716
-0.540305
-0.532496
-0.522375
-0.510061
-0.495705
-0.47949
-0.461627
-0.442349
-0.421907
-0.400563
-0.378585
-0.356236
-0.333772
-0.311433
-0.289437
-0.267975
-0.247214
-0.227288
-0.208302
-0.190332
-0.17343
-0.157622
-0.142912
-0.12929
-0.116728
-0.105191
-0.0946313
-0.0849984
-0.0762365
-0.0682883
-0.0610957
-0.0546012
-0.0487489
-0.0434849
-0.0387578
-0.0345193
-0.0307239
-0.0273293
-0.0242966
-0.0215897
-0.0191757
-0.0170242
-0.0151081
-0.0134022
-0.0118842
-0.0105334
-0.00933199
-0.00826253
-0.00731144
-0.00646358
-0.00570923
-0.00503462
-0.00443384
-0.00389344
-0.00341142
-0.00297374
-0.00258232
-0.00222197
-0.00189797
-0.00159435
-0.00131809
-0.00105417
-0.000808253
-0.000569739
-0.000337729
-0.000111248
-0.314377
-0.344827
-0.373783
-0.401046
-0.426498
-0.450603
-0.474237
-0.497605
-0.521868
-0.550482
-0.302085
-0.332614
-0.362202
-0.390829
-0.418638
-0.445781
-0.47184
-0.497188
-0.517804
-0.539885
-0.291466
-0.321518
-0.350609
-0.379118
-0.406482
-0.433242
-0.456318
-0.478348
-0.494132
-0.515517
-0.281768
-0.311054
-0.338881
-0.366281
-0.391128
-0.415315
-0.434586
-0.45504
-0.473832
-0.49962
-0.272939
-0.301345
-0.327665
-0.353717
-0.376332
-0.399085
-0.418517
-0.441293
-0.46447
-0.489675
-0.265068
-0.29257
-0.317674
-0.342795
-0.364866
-0.388099
-0.409883
-0.433745
-0.455987
-0.477051
-0.258177
-0.284832
-0.30926
-0.333944
-0.356545
-0.380224
-0.402561
-0.424152
-0.44343
-0.462687
-0.252194
-0.278114
-0.30226
-0.326564
-0.349398
-0.372162
-0.393126
-0.412387
-0.430941
-0.450746
-0.246994
-0.272275
-0.296203
-0.319853
-0.342217
-0.363563
-0.38346
-0.40233
-0.421591
-0.441528
-0.242478
-0.267154
-0.290741
-0.313591
-0.335314
-0.355857
-0.37566
-0.39491
-0.414229
-0.433218
-0.238559
-0.262653
-0.285811
-0.308003
-0.329319
-0.349641
-0.369508
-0.38862
-0.407186
-0.425129
-0.235161
-0.258727
-0.281475
-0.303227
-0.32429
-0.344438
-0.364011
-0.382546
-0.400382
-0.417749
-0.232237
-0.255355
-0.277742
-0.299167
-0.319947
-0.339769
-0.358875
-0.376921
-0.394391
-0.411472
-0.229765
-0.252499
-0.274555
-0.295674
-0.31612
-0.335585
-0.354324
-0.372113
-0.389396
-0.406216
-0.227718
-0.250114
-0.271856
-0.292681
-0.312811
-0.331997
-0.350499
-0.368129
-0.385227
-0.401771
-0.226068
-0.248163
-0.269616
-0.290179
-0.310048
-0.329026
-0.347346
-0.364823
-0.381733