/*--------------------------------*- C++ -*----------------------------------*\
| =========                 |                                                 |
| \\      /  F ield         | OpenFOAM: The Open Source CFD Toolbox           |
|  \\    /   O peration     | Version:  4.1                                   |
|   \\  /    A nd           | Web:      www.OpenFOAM.org                      |
|    \\/     M anipulation  |                                                 |
\*---------------------------------------------------------------------------*/
FoamFile
{
    version     2.0;
    format      ascii;
    class       volScalarField;
    location    "10";
    object      p;
}
// * * * * * * * * * * * * * * * * * * * * * * * * * * * * * * * * * * * * * //

dimensions      [0 2 -2 0 0 0 0];

internalField   nonuniform List<scalar> 
3800
(
-0.528198
-0.525222
-0.519193
-0.51284
-0.508379
-0.507041
-0.50834
-0.514919
-0.521653
-0.536534
-0.53269
-0.529664
-0.523336
-0.516659
-0.511214
-0.50782
-0.506708
-0.507758
-0.51018
-0.515486
-0.540748
-0.536872
-0.530136
-0.522617
-0.515545
-0.509252
-0.503828
-0.49956
-0.496229
-0.494265
-0.552478
-0.546838
-0.538514
-0.529499
-0.519593
-0.509108
-0.498724
-0.489438
-0.48069
-0.47479
-0.567977
-0.559485
-0.548671
-0.536898
-0.522437
-0.506602
-0.491219
-0.477081
-0.464547
-0.455313
-0.588304
-0.574378
-0.561119
-0.544283
-0.523306
-0.501467
-0.480988
-0.462738
-0.447008
-0.434716
-0.614278
-0.592318
-0.574674
-0.549946
-0.521191
-0.493119
-0.467899
-0.445957
-0.427454
-0.412454
-0.644171
-0.614798
-0.586993
-0.551738
-0.514879
-0.481046
-0.451571
-0.426461
-0.405456
-0.387743
-0.67008
-0.638245
-0.595922
-0.548319
-0.503585
-0.464654
-0.431603
-0.403842
-0.380547
-0.360531
-0.688572
-0.655189
-0.598285
-0.538751
-0.486762
-0.443412
-0.407435
-0.377589
-0.352512
-0.330914
-0.478079
-0.485293
-0.493611
-0.505002
-0.519045
-0.535066
-0.552664
-0.571633
-0.591732
-0.612244
-0.483316
-0.489914
-0.497873
-0.509045
-0.522932
-0.538845
-0.556353
-0.575203
-0.595187
-0.615778
-0.492371
-0.49771
-0.504986
-0.515637
-0.529077
-0.544607
-0.561765
-0.580219
-0.599808
-0.620472
-0.502805
-0.50641
-0.512624
-0.522349
-0.534892
-0.549561
-0.565904
-0.583536
-0.602226
-0.622453
-0.512344
-0.51393
-0.518648
-0.52691
-0.537949
-0.551128
-0.566046
-0.58238
-0.59976
-0.618369
-0.519503
-0.51907
-0.521875
-0.527956
-0.536758
-0.547771
-0.560638
-0.575133
-0.591124
-0.607687
-0.52386
-0.521757
-0.522274
-0.525477
-0.531276
-0.539469
-0.549815
-0.562011
-0.576752
-0.590849
-0.525818
-0.522691
-0.520853
-0.520762
-0.523049
-0.528008
-0.535664
-0.545475
-0.559293
-0.570303
-0.526301
-0.522853
-0.51899
-0.515805
-0.514751
-0.516745
-0.521991
-0.530245
-0.544016
-0.553754
-0.526586
-0.523275
-0.518005
-0.512632
-0.509267
-0.509387
-0.512751
-0.520859
-0.532035
-0.544211
-0.639669
-0.672882
-0.704362
-0.732898
-0.758198
-0.779741
-0.797475
-0.811342
-0.82151
-0.82809
-0.831073
-0.83028
-0.825561
-0.816858
-0.80417
-0.787035
-0.764893
-0.737125
-0.703162
-0.662574
-0.615215
-0.561363
-0.501851
-0.43811
-0.372091
-0.306109
-0.242543
-0.183461
-0.130427
-0.0844877
-0.0459085
-0.0148163
0.00958087
0.0278997
0.0410165
0.0498197
0.0551433
0.0577334
0.0582446
0.0572297
0.0551383
0.0523274
0.049075
0.0455918
0.0420335
0.0385117
0.0351041
0.031862
0.028817
0.0259861
0.0233753
0.0209833
0.0188034
0.0168257
0.0150379
0.0134267
0.0119781
0.0106787
0.00951462
0.00847361
0.00754304
0.00671224
0.00597008
0.00530776
0.00471558
0.00418649
0.00371207
0.00328683
0.0029034
0.00255769
0.00224283
0.00195645
0.00169069
0.00144655
0.00121197
0.000996146
0.0007759
0.000578744
0.000355632
0.000167921
-0.64369
-0.676761
-0.708192
-0.73658
-0.76174
-0.783156
-0.800769
-0.814521
-0.824555
-0.831022
-0.834033
-0.833401
-0.828887
-0.820813
-0.808831
-0.792467
-0.771197
-0.74441
-0.711481
-0.671908
-0.625463
-0.572292
-0.513127
-0.449366
-0.38298
-0.3163
-0.251922
-0.191984
-0.137866
-0.0909697
-0.051515
-0.0196785
0.00531143
0.0241632
0.0377436
0.0469512
0.0526339
0.0555475
0.056338
0.055561
0.0536757
0.0510454
0.0479507
0.0446049
0.0411662
0.0377488
0.0344325
0.0312704
0.0282954
0.0255258
0.0229688
0.020624
0.0184856
0.0165443
0.0147886
0.0132057
0.0117821
0.0105048
0.00936037
0.00833673
0.0074216
0.00660454
0.00587464
0.00522324
0.00464087
0.0041205
0.00365403
0.00323576
0.00285891
0.00251884
0.00220961
0.00192776
0.00166698
0.00142639
0.00119651
0.00098314
0.00076696
0.000569924
0.000349679
0.000158617
-0.64934
-0.681942
-0.713163
-0.741415
-0.766449
-0.787795
-0.805343
-0.81906
-0.829052
-0.835477
-0.838554
-0.838265
-0.834436
-0.827148
-0.816122
-0.80097
-0.781155
-0.75603
-0.724902
-0.687154
-0.642439
-0.590677
-0.532426
-0.469072
-0.402641
-0.334977
-0.269346
-0.207814
-0.151757
-0.103505
-0.062824
-0.0296923
-0.00356275
0.0163124
0.0308106
0.0408395
0.0472599
0.0508385
0.0522278
0.0519711
0.0505345
0.0482955
0.0455441
0.0424987
0.0393219
0.0361325
0.0330148
0.0300256
0.0272016
0.0245637
0.0221218
0.0198777
0.0178274
0.0159633
0.0142752
0.0127518
0.0113805
0.0101492
0.00904536
0.00805758
0.00717424
0.00638528
0.00568047
0.00505124
0.00448885
0.00398605
0.0035357
0.00313145
0.00276788
0.00243904
0.00214113
0.00186831
0.00161753
0.00138397
0.00116337
0.000954812
0.000747328
0.000550976
0.000337937
0.000140999
-0.652494
-0.684605
-0.715673
-0.744109
-0.769327
-0.790902
-0.808669
-0.822614
-0.83284
-0.839533
-0.842872
-0.843058
-0.839959
-0.833526
-0.823639
-0.809904
-0.791788
-0.768675
-0.73989
-0.704421
-0.662012
-0.612324
-0.555662
-0.493298
-0.427001
-0.357993
-0.291494
-0.228671
-0.171537
-0.121623
-0.0793413
-0.0446433
-0.0170328
0.00423553
0.0200335
0.0312629
0.0387833
0.0433674
0.0456738
0.0462437
0.0455287
0.0439166
0.0417141
0.0391505
0.0363957
0.0335746
0.0307775
0.0280672
0.0254856
0.0230586
0.0208003
0.0187162
0.0168055
0.0150634
0.013482
0.0120519
0.0107624
0.00960292
0.00856226
0.00763001
0.00679575
0.00605002
0.00538365
0.00478829
0.00425629
0.0037802
0.00335419
0.00297116
0.00262748
0.00231564
0.00203447
0.00177534
0.0015392
0.00131652
0.0011092
0.000908593
0.000713556
0.000520906
0.000318909
0.000118997
-0.649085
-0.681388
-0.712843
-0.742123
-0.768035
-0.790332
-0.80884
-0.823479
-0.834357
-0.841682
-0.845679
-0.846544
-0.844269
-0.838809
-0.830101
-0.817799
-0.801377
-0.7803
-0.75383
-0.720223
-0.680346
-0.63308
-0.578533
-0.517565
-0.451945
-0.38406
-0.317175
-0.253537
-0.195331
-0.144021
-0.100194
-0.0638606
-0.0345923
-0.0116849
0.00570084
0.0184392
0.0273702
0.0332575
0.0367624
0.0384301
0.0386991
0.0379474
0.0364938
0.0345853
0.0324049
0.0300872
0.0277299
0.025403
0.023155
0.0210181
0.0190119
0.017147
0.0154271
0.0138511
0.0124147
0.0111112
0.00993261
0.0088701
0.0079146
0.00705706
0.00628868
0.00560088
0.00498586
0.0044357
0.00394412
0.00350354
0.00310974
0.00275487
0.00243731
0.00214804
0.00188856
0.0016477
0.00143031
0.00122255
0.00103183
0.000842896
0.000663095
0.000479441
0.000294029
9.65696e-05
-0.636794
-0.670428
-0.703325
-0.733817
-0.761129
-0.78484
-0.804656
-0.820526
-0.832558
-0.840952
-0.845979
-0.847824
-0.846524
-0.842131
-0.834583
-0.8236
-0.808707
-0.789276
-0.764642
-0.733803
-0.696318
-0.65155
-0.599438
-0.54064
-0.476681
-0.410064
-0.343705
-0.280111
-0.221427
-0.169157
-0.124027
-0.086154
-0.0552042
-0.0305508
-0.0114149
0.0030288
0.0135839
0.0209899
0.0258996
0.0288617
0.0303167
0.0306218
0.0300908
0.028984
0.0275024
0.0257959
0.023974
0.0221156
0.0202773
0.0184979
0.0168034
0.01521
0.0137266
0.0123566
0.0110997
0.00995285
0.0089111
0.00796826
0.00711768
0.0063521
0.00566468
0.00504797
0.0044959
0.00400108
0.00355887
0.00316173
0.00280713
0.00248669
0.00220074
0.0019391
0.00170559
0.00148722
0.00129196
0.00110306
0.000931823
0.000758461
0.000594946
0.000426835
0.000260466
7.57951e-05
-0.617616
-0.652969
-0.687335
-0.719278
-0.748373
-0.773939
-0.79559
-0.813274
-0.827036
-0.837003
-0.843413
-0.846477
-0.846486
-0.843293
-0.836909
-0.827138
-0.813589
-0.795665
-0.772653
-0.743801
-0.708472
-0.666076
-0.616476
-0.560218
-0.49869
-0.434105
-0.369165
-0.306417
-0.247975
-0.195334
-0.149309
-0.110147
-0.077645
-0.051285
-0.0303739
-0.0141544
-0.00187504
0.00716757
0.0136042
0.0179797
0.0207427
0.0222438
0.0227765
0.0225973
0.0219185
0.0209077
0.0196903
0.018359
0.0169813
0.015605
0.0142634
0.0129786
0.011765
0.0106309
0.0095802
0.00861358
0.00772958
0.00692479
0.00619532
0.00553591
0.00494195
0.00440733
0.00392785
0.0034969
0.00311156
0.00276454
0.00245497
0.0021743
0.0019245
0.00169487
0.00149085
0.00129872
0.00112812
0.000961485
0.000812322
0.000659497
0.0005215
0.000366747
0.000221909
5.76128e-05
-0.596491
-0.632545
-0.667066
-0.700053
-0.730844
-0.75812
-0.781525
-0.801114
-0.816872
-0.828788
-0.837065
-0.841861
-0.843082
-0.841277
-0.836179
-0.827629
-0.815286
-0.798623
-0.776997
-0.749712
-0.716154
-0.675889
-0.628841
-0.575503
-0.517068
-0.45543
-0.392985
-0.332123
-0.274828
-0.22252
-0.176071
-0.135889
-0.101953
-0.0738975
-0.0511504
-0.0330495
-0.0189147
-0.00809337
1.15178e-05
0.0059266
0.0100996
0.0128976
0.014613
0.0154888
0.0157322
0.0155187
0.0149879
0.0142475
0.0133798
0.0124455
0.0114881
0.0105383
0.0096173
0.00873894
0.00791213
0.00714153
0.0064294
0.00577533
0.00517831
0.00463521
0.00414375
0.00369929
0.00329958
0.00293893
0.00261612
0.00232437
0.00206431
0.00182762
0.00161747
0.00142334
0.00125156
0.00108873
0.00094486
0.000803192
0.000677577
0.000547418
0.000429935
0.000299893
0.000179679
4.1761e-05
-0.578684
-0.611885
-0.644303
-0.678149
-0.710949
-0.740204
-0.765611
-0.787249
-0.804986
-0.818719
-0.828657
-0.835132
-0.838074
-0.837381
-0.833276
-0.825724
-0.814356
-0.798715
-0.778265
-0.752408
-0.720596
-0.682462
-0.638034
-0.587902
-0.533217
-0.475412
-0.416416
-0.358306
-0.302885
-0.25148
-0.204982
-0.163963
-0.128626
-0.0988027
-0.074081
-0.053922
-0.0377382
-0.0249426
-0.014982
-0.00735621
-0.00162826
0.00257062
0.00554667
0.00755816
0.00882053
0.00950742
0.00976276
0.00970311
0.00942151
0.00899112
0.00846766
0.00789239
0.00729548
0.00669827
0.00611597
0.00555842
0.00503236
0.00454102
0.00408667
0.00366871
0.00328738
0.00293976
0.00262562
0.00234045
0.00208463
0.00185225
0.00164515
0.00145576
0.00128798
0.00113212
0.000994766
0.000863651
0.000748303
0.000633956
0.000533048
0.000427715
0.000333701
0.000229439
0.000135461
2.76369e-05
-0.570371
-0.595529
-0.621744
-0.653116
-0.685134
-0.71475
-0.741406
-0.764814
-0.784606
-0.800585
-0.812697
-0.82118
-0.82601
-0.826749
-0.824025
-0.817697
-0.807399
-0.792751
-0.773326
-0.748652
-0.718307
-0.682053
-0.639959
-0.592516
-0.540719
-0.48596
-0.429939
-0.374482
-0.321278
-0.271615
-0.226199
-0.185586
-0.150067
-0.119596
-0.0938807
-0.0724899
-0.0549296
-0.0406907
-0.029282
-0.0202494
-0.0131871
-0.00774198
-0.00361325
-0.000547617
0.0016668
0.00320815
0.004227
0.00484722
0.00516723
0.00526503
0.00520327
0.00503069
0.00478467
0.00449316
0.00417732
0.00385217
0.00352908
0.00321512
0.00291609
0.00263421
0.00237239
0.00212975
0.00190812
0.00170448
0.0015208
0.00135231
0.00120196
0.00106329
0.000940679
0.000825801
0.000724982
0.000627834
0.000542772
0.000457634
0.00038279
0.000304011
0.000234408
0.000157681
9.0606e-05
1.43034e-05
-0.562319
-0.581632
-0.608166
-0.638722
-0.669739
-0.699221
-0.726256
-0.750221
-0.770662
-0.787313
-0.799995
-0.808666
-0.814048
-0.815066
-0.812276
-0.80562
-0.794757
-0.779352
-0.759064
-0.733541
-0.702515
-0.665921
-0.624003
-0.577395
-0.52716
-0.474676
-0.421491
-0.36918
-0.31915
-0.272481
-0.229829
-0.191591
-0.157939
-0.128808
-0.103945
-0.0829814
-0.0654974
-0.0510619
-0.0392567
-0.0296912
-0.0220108
-0.0159022
-0.0110946
-0.00735671
-0.00449065
-0.00232876
-0.00072919
0.000425864
0.0012328
0.00177069
0.00210431
0.00228523
0.00235412
0.00234235
0.00227451
0.00216889
0.00203994
0.00189755
0.00175011
0.00160214
0.00145862
0.00132055
0.00119138
0.00106962
0.000958467
0.000854447
0.000761354
0.000673885
0.000596883
0.000523285
0.000459302
0.000396202
0.000341617
0.00028551
0.000236865
0.000184564
0.000139419
8.92565e-05
4.8156e-05
2.22639e-06
-0.552037
-0.575914
-0.602898
-0.63121
-0.659869
-0.68776
-0.713746
-0.736925
-0.756739
-0.7729
-0.785369
-0.794074
-0.797571
-0.797871
-0.794454
-0.786942
-0.77509
-0.758672
-0.737454
-0.711221
-0.679871
-0.643511
-0.602534
-0.557658
-0.509906
-0.460528
-0.410868
-0.362235
-0.315776
-0.272381
-0.232613
-0.196764
-0.164947
-0.137116
-0.113079
-0.0925435
-0.0751673
-0.0605933
-0.0484691
-0.0384598
-0.0302556
-0.0235783
-0.0181831
-0.0138569
-0.0104157
-0.0077019
-0.00558123
-0.00394005
-0.00268328
-0.00173213
-0.00102155
-0.000498919
-0.000121812
0.000143276
0.000323314
0.000439008
0.00050725
0.000540251
0.000548586
0.00053884
0.000517865
0.000488435
0.000455487
0.000419102
0.000383538
0.000346834
0.000313329
0.000279321
0.000249637
0.000219066
0.000193101
0.000165356
0.000142002
0.000115824
9.38312e-05
6.83164e-05
4.77718e-05
2.3703e-05
7.7917e-06
-9.79646e-06
-0.540941
-0.570628
-0.596836
-0.622118
-0.647801
-0.673432
-0.697749
-0.719593
-0.738236
-0.753317
-0.764683
-0.772051
-0.775528
-0.775334
-0.771242
-0.762999
-0.750466
-0.733515
-0.712007
-0.685847
-0.655068
-0.619894
-0.580789
-0.538462
-0.493838
-0.447981
-0.402007
-0.356992
-0.313882
-0.273423
-0.236113
-0.202232
-0.171896
-0.145095
-0.121698
-0.101479
-0.084162
-0.0694464
-0.0570317
-0.0466263
-0.0379566
-0.0307727
-0.0248513
-0.0199956
-0.016034
-0.0128178
-0.0102189
-0.00812766
-0.00645137
-0.00511258
-0.00404665
-0.00320039
-0.00253011
-0.00200057
-0.00158285
-0.00125413
-0.000995446
-0.000792497
-0.000632775
-0.000507788
-0.000409037
-0.00033203
-0.000270545
-0.000222904
-0.000183991
-0.000154178
-0.000128785
-0.000109779
-9.25954e-05
-8.03899e-05
-6.86155e-05
-6.11542e-05
-5.34368e-05
-4.97677e-05
-4.51193e-05
-4.40061e-05
-4.00706e-05
-3.86476e-05
-2.99211e-05
-2.07225e-05
-0.530339
-0.561553
-0.586677
-0.609458
-0.63241
-0.65571
-0.678191
-0.698563
-0.715934
-0.729886
-0.740218
-0.746955
-0.750384
-0.749825
-0.745205
-0.736491
-0.723647
-0.706609
-0.68531
-0.659746
-0.630038
-0.596477
-0.55954
-0.519882
-0.478313
-0.435741
-0.393115
-0.351344
-0.311234
-0.273429
-0.238379
-0.206353
-0.17747
-0.151737
-0.129058
-0.109258
-0.0921118
-0.0773689
-0.0647735
-0.0540743
-0.045032
-0.0374244
-0.0310502
-0.0257297
-0.0213043
-0.0176347
-0.0145999
-0.0120953
-0.0100314
-0.00833277
-0.00693546
-0.00578609
-0.00484008
-0.00406088
-0.00341798
-0.0028868
-0.00244658
-0.00208118
-0.00177641
-0.00152201
-0.00130805
-0.00112837
-0.000975661
-0.000846661
-0.000735547
-0.000641109
-0.000558451
-0.000487797
-0.000424932
-0.000370952
-0.000322269
-0.000280366
-0.00024214
-0.000209216
-0.00017828
-0.000151226
-0.000123324
-9.74105e-05
-6.4988e-05
-3.10331e-05
-0.517845
-0.548706
-0.573444
-0.594841
-0.615815
-0.637143
-0.657946
-0.676946
-0.69317
-0.706149
-0.71571
-0.72189
-0.7248
-0.723801
-0.7188
-0.709841
-0.696952
-0.680123
-0.659342
-0.634668
-0.606279
-0.574494
-0.539775
-0.502717
-0.464033
-0.424508
-0.384956
-0.346152
-0.308784
-0.273406
-0.240424
-0.21009
-0.182532
-0.157773
-0.135753
-0.116343
-0.0993654
-0.0846136
-0.0718716
-0.060923
-0.0515582
-0.0435796
-0.0368051
-0.0310705
-0.0262288
-0.0221497
-0.0187189
-0.0158369
-0.0134176
-0.0113873
-0.00968303
-0.00825153
-0.00704773
-0.00603413
-0.00517898
-0.00445627
-0.00384376
-0.00332371
-0.00288047
-0.00250219
-0.00217768
-0.00189927
-0.00165865
-0.00145108
-0.00127015
-0.00111309
-0.000974878
-0.000854037
-0.000746723
-0.000652067
-0.00056737
-0.000491887
-0.000423794
-0.000362345
-0.000305688
-0.000253506
-0.000202224
-0.000152852
-9.78158e-05
-4.09436e-05
-0.503261
-0.534352
-0.55929
-0.580081
-0.599753
-0.619516
-0.638837
-0.656558
-0.671712
-0.683786
-0.692599
-0.698112
-0.700342
-0.698886
-0.69363
-0.684602
-0.67185
-0.655401
-0.635293
-0.61163
-0.584618
-0.554584
-0.521963
-0.487298
-0.451218
-0.41441
-0.377573
-0.341374
-0.306408
-0.273162
-0.242004
-0.213178
-0.186816
-0.162959
-0.141575
-0.122566
-0.105793
-0.0910848
-0.0782576
-0.0671248
-0.0575026
-0.0492154
-0.0420996
-0.0360053
-0.0307969
-0.0263535
-0.0225674
-0.0193443
-0.0166014
-0.0142674
-0.0122805
-0.0105879
-0.00914444
-0.00791202
-0.006858
-0.00595519
-0.00518016
-0.00451377
-0.00393917
-0.00344307
-0.00301319
-0.00264044
-0.00231569
-0.00203276
-0.00178475
-0.00156743
-0.00137569
-0.00120643
-0.00105617
-0.000922203
-0.000802626
-0.000694652
-0.000597565
-0.000508539
-0.000426921
-0.000350495
-0.000276605
-0.000204912
-0.000128444
-5.02796e-05
-0.489198
-0.520415
-0.545445
-0.565955
-0.584787
-0.603334
-0.621358
-0.637893
-0.652032
-0.663242
-0.671314
-0.676171
-0.677776
-0.675926
-0.670512
-0.661527
-0.64901
-0.633017
-0.613625
-0.590971
-0.565279
-0.536868
-0.506149
-0.473617
-0.439835
-0.405405
-0.370937
-0.337013
-0.304152
-0.272789
-0.243258
-0.215791
-0.190521
-0.167502
-0.14672
-0.128107
-0.11155
-0.0969101
-0.0840329
-0.0727571
-0.0629224
-0.054373
-0.0469617
-0.040552
-0.0350193
-0.0302509
-0.0261459
-0.0226145
-0.0195777
-0.0169663
-0.0147202
-0.0127871
-0.011122
-0.00968652
-0.00844726
-0.00737616
-0.00644882
-0.00564492
-0.00494657
-0.00433922
-0.00380963
-0.00334743
-0.00294275
-0.0025881
-0.00227616
-0.00200133
-0.00175843
-0.00154285
-0.00135145
-0.0011798
-0.00102672
-0.000887572
-0.000762598
-0.000647118
-0.000541484
-0.000441846
-0.000346348
-0.00025354
-0.000156871
-5.89419e-05
-0.47708
-0.507429
-0.532218
-0.552589
-0.57091
-0.588541
-0.60547
-0.620939
-0.634145
-0.644564
-0.651959
-0.656238
-0.657355
-0.655204
-0.649698
-0.640809
-0.628566
-0.613043
-0.59435
-0.572648
-0.548169
-0.521222
-0.492194
-0.461541
-0.429768
-0.39741
-0.365003
-0.33306
-0.302041
-0.272335
-0.244246
-0.217992
-0.193707
-0.171454
-0.151233
-0.132998
-0.116661
-0.10211
-0.0892132
-0.0778324
-0.067827
-0.0590589
-0.0513956
-0.0447129
-0.038896
-0.0338403
-0.0294509
-0.025643
-0.022341
-0.0194781
-0.0169957
-0.0148425
-0.0129739
-0.0113511
-0.00994047
-0.0087132
-0.00764411
-0.00671191
-0.00589782
-0.00518618
-0.00456295
-0.00401656
-0.00353654
-0.00311417
-0.00274178
-0.00241249
-0.00212109
-0.00186156
-0.00163105
-0.0014236
-0.00123861
-0.00106979
-0.000918227
-0.000777567
-0.000649056
-0.000527369
-0.000411409
-0.000298704
-0.000183123
-6.69012e-05
-0.466409
-0.495322
-0.519697
-0.540011
-0.558046
-0.575014
-0.591052
-0.605604
-0.617988
-0.627712
-0.634528
-0.638334
-0.639083
-0.636708
-0.631146
-0.622367
-0.610403
-0.595339
-0.577307
-0.556482
-0.533099
-0.507459
-0.479926
-0.45092
-0.420897
-0.390338
-0.35972
-0.3295
-0.300088
-0.271834
-0.245018
-0.219842
-0.196441
-0.174882
-0.15518
-0.137303
-0.121187
-0.106737
-0.0938438
-0.0823882
-0.0722467
-0.0632967
-0.0554189
-0.0485002
-0.042435
-0.0371259
-0.0324842
-0.0284293
-0.0248891
-0.0217993
-0.0191029
-0.0167496
-0.014695
-0.0129007
-0.0113326
-0.00996139
-0.00876135
-0.00771032
-0.00678881
-0.00598016
-0.00526966
-0.00464468
-0.00409419
-0.0036084
-0.00317932
-0.00279891
-0.00246192
-0.00216104
-0.00189368
-0.00165248
-0.00143738
-0.00124056
-0.00106389
-0.00089946
-0.000749367
-0.000606897
-0.000471722
-0.000340378
-0.000207225
-7.41365e-05
-0.456496
-0.484112
-0.508066
-0.528339
-0.546212
-0.562706
-0.578038
-0.591824
-0.603503
-0.612632
-0.618962
-0.622385
-0.622847
-0.6203
-0.614703
-0.606042
-0.594352
-0.579726
-0.562307
-0.54228
-0.519881
-0.4954
-0.46918
-0.44161
-0.413107
-0.384107
-0.355038
-0.326312
-0.298297
-0.271312
-0.245613
-0.221392
-0.198779
-0.177846
-0.158619
-0.141078
-0.125175
-0.110833
-0.0979609
-0.0864542
-0.0762053
-0.0671049
-0.0590454
-0.0519239
-0.0456429
-0.0401118
-0.0352473
-0.0309733
-0.0272206
-0.0239275
-0.0210385
-0.0185043
-0.0162813
-0.014331
-0.0126193
-0.0111166
-0.00979651
-0.00863633
-0.00761593
-0.00671782
-0.00592668
-0.00522896
-0.00461317
-0.00406852
-0.00358676
-0.00315879
-0.00277933
-0.00243991
-0.00213817
-0.00186546
-0.00162221
-0.00139924
-0.00119908
-0.00101241
-0.000842156
-0.000680264
-0.000527217
-0.000378543
-0.000229193
-8.06353e-05
-0.447361
-0.473968
-0.497505
-0.5177
-0.535458
-0.551606
-0.566386
-0.579541
-0.590623
-0.599245
-0.605167
-0.608273
-0.608504
-0.605826
-0.600216
-0.591676
-0.58025
-0.566034
-0.549177
-0.529869
-0.508343
-0.484881
-0.459808
-0.433484
-0.406297
-0.378642
-0.350911
-0.323476
-0.296672
-0.270789
-0.246067
-0.222685
-0.200771
-0.180399
-0.161602
-0.144371
-0.12867
-0.114439
-0.101598
-0.0900586
-0.0797259
-0.0705019
-0.0622896
-0.0549947
-0.0485273
-0.042803
-0.0377433
-0.033276
-0.0293352
-0.0258612
-0.0228002
-0.020104
-0.0177296
-0.0156386
-0.0137972
-0.0121752
-0.0107462
-0.00948665
-0.00837608
-0.00739625
-0.00653132
-0.00576695
-0.00509123
-0.00449251
-0.00396229
-0.00349054
-0.00307193
-0.00269697
-0.00236347
-0.00206166
-0.00179238
-0.00154521
-0.00132333
-0.00111608
-0.000927194
-0.000747329
-0.000577828
-0.000413185
-0.00024904
-8.64036e-05
-0.439295
-0.464991
-0.488081
-0.508152
-0.52581
-0.541699
-0.556048
-0.568687
-0.579269
-0.58746
-0.593037
-0.595879
-0.595925
-0.593151
-0.587548
-0.579131
-0.567952
-0.554113
-0.537763
-0.519093
-0.498336
-0.475762
-0.451683
-0.426436
-0.40038
-0.373882
-0.347299
-0.320973
-0.295212
-0.270283
-0.246409
-0.22376
-0.20246
-0.182585
-0.164172
-0.147223
-0.131711
-0.117587
-0.104785
-0.0932275
-0.0828302
-0.0735055
-0.0651655
-0.0577235
-0.0510963
-0.0452049
-0.0399754
-0.0353392
-0.0312331
-0.0275997
-0.0243865
-0.0215466
-0.0190373
-0.0168209
-0.0148633
-0.0131345
-0.0116075
-0.0102585
-0.00906663
-0.00801296
-0.00708128
-0.00625652
-0.00552644
-0.00487862
-0.00430435
-0.00379276
-0.00333849
-0.00293113
-0.00256867
-0.0022403
-0.00194725
-0.00167797
-0.00143624
-0.00121017
-0.00100427
-0.000807972
-0.000623495
-0.000444297
-0.000266783
-9.14601e-05
-0.432367
-0.45715
-0.479771
-0.499694
-0.517266
-0.532958
-0.54697
-0.559194
-0.56936
-0.57719
-0.582477
-0.585101
-0.585003
-0.582162
-0.57658
-0.568283
-0.557331
-0.543829
-0.527928
-0.509818
-0.489728
-0.467923
-0.444698
-0.420373
-0.395284
-0.369771
-0.344168
-0.318789
-0.293919
-0.269808
-0.246663
-0.224648
-0.203881
-0.184442
-0.166369
-0.149672
-0.134332
-0.12031
-0.10755
-0.0959845
-0.0855381
-0.0761322
-0.0676862
-0.0601204
-0.0533574
-0.047323
-0.0419473
-0.0371649
-0.0329153
-0.0291428
-0.0257966
-0.0228304
-0.0202027
-0.0178756
-0.0158154
-0.0139919
-0.012378
-0.0109496
-0.00968533
-0.00856585
-0.00757458
-0.00669585
-0.00591712
-0.00522532
-0.00461156
-0.00406424
-0.00357795
-0.00314149
-0.00275296
-0.0024007
-0.00208625
-0.00179706
-0.00153745
-0.00129441
-0.00107321
-0.00086209
-0.000664169
-0.00047188
-0.000282446
-9.58331e-05
-0.426449
-0.450367
-0.47254
-0.492316
-0.509818
-0.525361
-0.53911
-0.551001
-0.560829
-0.568359
-0.573406
-0.575854
-0.575644
-0.572758
-0.567205
-0.559021
-0.548272
-0.535067
-0.519556
-0.50193
-0.482413
-0.461263
-0.438763
-0.415219
-0.390946
-0.366266
-0.341488
-0.316908
-0.292791
-0.269373
-0.246848
-0.225374
-0.205066
-0.186001
-0.168224
-0.151749
-0.136563
-0.122635
-0.109917
-0.0983507
-0.0878677
-0.0783967
-0.0698638
-0.0621951
-0.0553181
-0.0491628
-0.0436628
-0.0387556
-0.034383
-0.0304909
-0.0270299
-0.0239547
-0.0212242
-0.0188011
-0.0166517
-0.0147456
-0.0130559
-0.011558
-0.0102303
-0.00905313
-0.00800953
-0.00708337
-0.00626185
-0.00553133
-0.00488277
-0.00430394
-0.00378938
-0.00332721
-0.00291566
-0.00254227
-0.0022089
-0.00190209
-0.00162666
-0.00136859
-0.00113385
-0.000909595
-0.000699809
-0.000495948
-0.00029606
-9.95553e-05
-0.421421
-0.444592
-0.466371
-0.486017
-0.503461
-0.51889
-0.532434
-0.544062
-0.553618
-0.560906
-0.565759
-0.568066
-0.56777
-0.564854
-0.559334
-0.551251
-0.540679
-0.527728
-0.51255
-0.495333
-0.4763
-0.455698
-0.433805
-0.41091
-0.387316
-0.363327
-0.339235
-0.315318
-0.291828
-0.268987
-0.246981
-0.225961
-0.206038
-0.187291
-0.169766
-0.153481
-0.138429
-0.124585
-0.111908
-0.100345
-0.0898347
-0.0803124
-0.0717093
-0.0639563
-0.056985
-0.0507293
-0.0451255
-0.0401137
-0.0356375
-0.0316445
-0.0280865
-0.0249188
-0.022101
-0.0195961
-0.0173706
-0.0153941
-0.0136395
-0.0120821
-0.0107001
-0.00947331
-0.00838475
-0.00741778
-0.00655942
-0.00579555
-0.00511698
-0.00451096
-0.003972
-0.00348763
-0.00305617
-0.00266452
-0.00231477
-0.00199272
-0.0017036
-0.00143252
-0.00118606
-0.000950419
-0.000730385
-0.000516514
-0.000307652
-0.00010266
-0.417242
-0.439806
-0.461259
-0.480793
-0.49819
-0.513531
-0.526916
-0.538339
-0.54768
-0.554776
-0.559476
-0.561673
-0.56131
-0.558376
-0.552889
-0.544894
-0.53447
-0.521732
-0.50683
-0.489951
-0.471313
-0.451161
-0.429761
-0.407395
-0.384352
-0.360923
-0.337387
-0.314009
-0.291028
-0.268657
-0.247075
-0.226425
-0.206819
-0.188334
-0.171018
-0.154891
-0.139952
-0.12618
-0.113539
-0.101982
-0.0914529
-0.0818909
-0.0732322
-0.0654117
-0.0583644
-0.0520271
-0.0463387
-0.0412413
-0.0366802
-0.0326044
-0.0289663
-0.0257224
-0.0228324
-0.0202598
-0.0179711
-0.0159361
-0.0141276
-0.0125206
-0.0110933
-0.00982518
-0.00869908
-0.00769801
-0.00680885
-0.00601707
-0.00531337
-0.00468457
-0.00412515
-0.00362215
-0.00317399
-0.00276701
-0.00240351
-0.00206866
-0.00176804
-0.00148602
-0.00122973
-0.000984512
-0.000755883
-0.000533596
-0.000317247
-0.000105179
-0.413908
-0.435999
-0.457195
-0.476639
-0.493996
-0.509267
-0.522532
-0.533798
-0.542976
-0.549925
-0.554507
-0.556621
-0.55621
-0.553264
-0.547806
-0.539884
-0.529581
-0.517012
-0.50233
-0.485718
-0.467393
-0.447594
-0.426582
-0.40463
-0.38202
-0.359029
-0.335928
-0.312972
-0.29039
-0.268388
-0.247138
-0.226781
-0.207425
-0.189147
-0.171997
-0.155998
-0.14115
-0.127437
-0.114827
-0.103276
-0.0927335
-0.0831419
-0.0744407
-0.0665678
-0.0594613
-0.0530602
-0.0473054
-0.0421407
-0.0375126
-0.0333711
-0.0296697
-0.0263652
-0.0234179
-0.0207914
-0.0184524
-0.0163708
-0.0145191
-0.0128725
-0.0114089
-0.0101078
-0.00895159
-0.00792319
-0.00700931
-0.00619513
-0.00547126
-0.00482415
-0.00424828
-0.00373032
-0.00326872
-0.00284941
-0.00247484
-0.0021297
-0.00181981
-0.00152899
-0.00126476
-0.00101183
-0.000776283
-0.000547205
-0.000324879
-0.000107148
-0.411403
-0.43315
-0.454163
-0.473542
-0.49087
-0.506089
-0.519264
-0.530416
-0.539475
-0.546318
-0.550815
-0.552869
-0.552424
-0.549472
-0.544037
-0.536171
-0.525958
-0.513517
-0.498998
-0.482586
-0.464493
-0.444956
-0.42423
-0.402585
-0.380293
-0.357625
-0.334846
-0.3122
-0.289913
-0.268183
-0.247179
-0.227038
-0.207868
-0.189745
-0.172719
-0.156815
-0.142036
-0.128368
-0.115782
-0.104238
-0.0936861
-0.0840733
-0.0753412
-0.0674302
-0.0602803
-0.0538321
-0.0480283
-0.0428136
-0.0381358
-0.0339456
-0.030197
-0.0268473
-0.0238572
-0.0211905
-0.0188139
-0.0166973
-0.0148134
-0.0131371
-0.0116464
-0.0103204
-0.00914159
-0.00809267
-0.00716021
-0.00632919
-0.00559013
-0.00492926
-0.004341
-0.00381177
-0.00334004
-0.00291145
-0.00252854
-0.00217564
-0.00185877
-0.0015613
-0.00129109
-0.00103235
-0.000791571
-0.000557349
-0.000330575
-0.000108602
-0.409665
-0.431216
-0.452128
-0.471476
-0.48879
-0.503978
-0.517096
-0.528173
-0.537154
-0.543927
-0.54837
-0.550384
-0.549918
-0.546963
-0.541544
-0.533716
-0.523564
-0.511208
-0.496798
-0.480517
-0.462578
-0.443213
-0.422677
-0.401234
-0.379151
-0.356697
-0.334129
-0.311688
-0.289595
-0.268045
-0.247203
-0.227206
-0.208158
-0.190138
-0.173195
-0.157354
-0.142622
-0.128984
-0.116414
-0.104874
-0.0943174
-0.084691
-0.075939
-0.0680031
-0.0608246
-0.0543454
-0.0485092
-0.0432615
-0.0385508
-0.0343283
-0.0305485
-0.0271689
-0.0241503
-0.0214568
-0.0190552
-0.0169154
-0.01501
-0.0133139
-0.011805
-0.0104624
-0.00926859
-0.00820597
-0.00726111
-0.00641884
-0.00566964
-0.00499955
-0.00440301
-0.00386624
-0.00338773
-0.00295295
-0.00256443
-0.00220636
-0.00188479
-0.00158294
-0.00130866
-0.00104611
-0.000801742
-0.000564031
-0.000334324
-0.000109604
-0.408678
-0.430175
-0.451064
-0.470414
-0.487733
-0.502913
-0.516007
-0.527049
-0.535994
-0.542734
-0.54715
-0.549146
-0.548671
-0.545716
-0.540305
-0.532496
-0.522375
-0.510061
-0.495705
-0.47949
-0.461627
-0.442349
-0.421907
-0.400563
-0.378585
-0.356236
-0.333772
-0.311433
-0.289436
-0.267975
-0.247214
-0.227288
-0.208302
-0.190332
-0.17343
-0.157622
-0.142912
-0.12929
-0.116728
-0.105191
-0.0946313
-0.0849983
-0.0762365
-0.0682882
-0.0610956
-0.0546012
-0.0487489
-0.0434849
-0.0387578
-0.0345192
-0.0307238
-0.0273293
-0.0242966
-0.0215897
-0.0191757
-0.0170243
-0.0151081
-0.0134022
-0.0118843
-0.0105334
-0.00933206
-0.00826261
-0.00731154
-0.00646367
-0.00570936
-0.00503472
-0.00443398
-0.00389352
-0.00341153
-0.00297376
-0.0025823
-0.00222182
-0.00189768
-0.00159388
-0.00131729
-0.00105319
-0.000806793
-0.000568388
-0.000336003
-0.000110231
-0.314377
-0.344827
-0.373783
-0.401046
-0.426498
-0.450603
-0.474237
-0.497605
-0.521868
-0.550482
-0.302085
-0.332614
-0.362202
-0.390829
-0.418638
-0.445781
-0.47184
-0.497188
-0.517804
-0.539885
-0.291466
-0.321518
-0.350609
-0.379118
-0.406482
-0.433241
-0.456318
-0.478348
-0.494132
-0.515517
-0.281768
-0.311054
-0.338881
-0.366281
-0.391128
-0.415315
-0.434585
-0.45504
-0.473832
-0.49962
-0.272939
-0.301345
-0.327665
-0.353717
-0.376332
-0.399085
-0.418517
-0.441293
-0.46447
-0.489675
-0.265068
-0.29257
-0.317674
-0.342795
-0.364866
-0.388099
-0.409883
-0.433745
-0.455987
-0.477051
-0.258177
-0.284832
-0.30926
-0.333944
-0.356545
-0.380223
-0.402561
-0.424152
-0.44343
-0.462687
-0.252194
-0.278114
-0.30226
-0.326564
-0.349398
-0.372162
-0.393126
-0.412387
-0.430941
-0.450745
-0.246994
-0.272275
-0.296203
-0.319853
-0.342217
-0.363563
-0.38346
-0.40233
-0.421591
-0.441528
-0.242478
-0.267154
-0.290741
-0.313591
-0.335314
-0.355857
-0.37566
-0.39491
-0.414229
-0.433218
-0.238559
-0.262653
-0.285811
-0.308003
-0.329319
-0.349641
-0.369508
-0.38862
-0.407186
-0.425129
-0.235161
-0.258727
-0.281475
-0.303227
-0.32429
-0.344438
-0.364011
-0.382546
-0.400382
-0.417749
-0.232237
-0.255355
-0.277742
-0.299167
-0.319947
-0.339769
-0.358875
-0.376921
-0.394391
-0.411472
-0.229765
-0.252499
-0.274555
-0.295674
-0.31612
-0.335585
-0.354324
-0.372113
-0.389396
-0.406216
-0.227718
-0.250114
-0.271856
-0.292681
-0.312811
-0.331997
-0.350499
-0.368129
-0.385227
-0.401771
-0.226068
-0.248163
-0.269616
-0.290179
-0.310048
-0.329026
-0.347346