/*--------------------------------*- C++ -*----------------------------------*\
| =========                 |                                                 |
| \\      /  F ield         | OpenFOAM: The Open Source CFD Toolbox           |
|  \\    /   O peration     | Version:  4.1                                   |
|   \\  /    A nd           | Web:      www.OpenFOAM.org                      |
|    \\/     M anipulation  |                                                 |
\*---------------------------------------------------------------------------*/
FoamFile
{
    version     2.0;
    format      ascii;
    class       surfaceScalarField;
    location    "10";
    object      phi;
}
// * * * * * * * * * * * * * * * * * * * * * * * * * * * * * * * * * * * * * //

dimensions      [0 3 -1 0 0 0 0];

internalField   nonuniform List<scalar> 
3890
(
0.000192992
0.00244464
-0.00263764
0.00190627
0.00156336
-0.00327664
0.0059091
-0.00320368
-0.000799153
0.0126595
-0.0107588
0.00400845
0.0221064
-0.0199436
0.0104967
0.0336847
-0.0295458
0.0179674
0.046515
-0.0385694
0.0257392
0.059854
-0.0464234
0.0330844
0.072933
-0.0531785
0.0400995
-0.0576536
0.0457993
0.0847873
0.000454292
0.00199035
0.00312931
-0.00111165
0.00887414
-0.00894852
0.0178269
-0.0197116
0.029257
-0.0313737
0.0419456
-0.0422343
0.0547085
-0.0513323
0.0667235
-0.0584384
0.0772177
-0.0636728
-0.0672394
0.0868035
0.000843444
0.00114691
0.00475389
-0.0050221
0.0124001
-0.0165947
0.0231389
-0.0304504
0.035383
-0.0436179
0.0475366
-0.0543879
0.0585519
-0.0623477
0.0679663
-0.0678527
0.0758595
-0.0715661
-0.0741137
0.0827338
0.00135468
-0.000207769
0.00667795
-0.0103454
0.0159864
-0.0259032
0.0275079
-0.0419719
0.0391011
-0.0552111
0.0493811
-0.0646679
0.057879
-0.0708456
0.0647807
-0.0747544
0.0705476
-0.077333
-0.079219
0.0756529
0.00197045
-0.00217822
0.00868976
-0.0170647
0.0189544
-0.0361678
0.0300136
-0.053031
0.039853
-0.0650505
0.0477681
-0.072583
0.0539535
-0.077031
0.0589559
-0.0797568
0.0633124
-0.0816895
-0.0833987
0.067492
0.00266182
-0.00484005
0.0104685
-0.0248714
0.0207101
-0.0464094
0.0303345
-0.0626555
0.0380083
-0.0727243
0.0437486
-0.0783233
0.0481349
-0.0814172
0.0517809
-0.0834029
0.0551411
-0.0850496
-0.0866744
0.0584168
0.00335225
-0.00819229
0.0116753
-0.0331945
0.021008
-0.0557421
0.0287393
-0.0703867
0.0343358
-0.0783208
0.0382904
-0.0822779
0.0412989
-0.0844257
0.043895
-0.085999
0.0463706
-0.0875252
-0.0891536
0.0488497
0.00393069
-0.012123
0.0120922
-0.041356
0.0199645
-0.0636143
0.0257444
-0.0761666
0.0295332
-0.0821097
0.0320503
-0.084795
0.0339524
-0.0863278
0.0356364
-0.087683
0.0372794
-0.0891682
-0.0907997
0.0389255
0.00428478
-0.0164078
0.0116799
-0.0487511
0.0178761
-0.0698106
0.0218491
-0.0801396
0.0241148
-0.0843754
0.0254476
-0.0861278
0.0263931
-0.0872733
0.0272219
-0.0885119
0.0280203
-0.0899666
-0.0915845
0.0288051
0.00434612
-0.0207539
0.0105815
-0.0549864
0.0150803
-0.0743094
0.017454
-0.0825134
0.0184354
-0.0853567
0.0187479
-0.0864403
0.0188117
-0.087337
0.0187977
-0.0884979
0.0187471
-0.089916
0.0186597
-0.0914971
-0.000836015
0.000836015
-0.00248628
0.00165027
-0.00455386
0.00206758
-0.00684164
0.00228777
-0.00925598
0.00241434
-0.0117616
0.00250563
-0.0143554
0.00259377
-0.0170516
0.00269626
-0.0198789
0.00282723
0.00300323
-0.0228821
-0.000736863
0.00157288
-0.00220855
0.00312196
-0.00405413
0.00391315
-0.0060744
0.00430805
-0.00816437
0.00450431
-0.0102736
0.00461483
-0.0123831
0.00470334
-0.0144942
0.00480732
-0.0166228
0.00495586
0.00519143
-0.018811
-0.000563056
0.00213593
-0.00172257
0.00428148
-0.00316889
0.00535947
-0.00470931
0.00584847
-0.00622482
0.00601982
-0.00764121
0.00603122
-0.0089126
0.00597473
-0.0100155
0.00591017
-0.0109435
0.00588386
0.0059629
-0.0117149
-0.000361052
0.00249699
-0.00113776
0.00505818
-0.00208343
0.00630514
-0.0030193
0.00678434
-0.00381837
0.00681889
-0.00438588
0.00659873
-0.00464554
0.00623439
-0.00453975
0.00580438
-0.00402796
0.00537208
0.00504988
-0.00311495
-0.000178159
0.00267514
-0.00057369
0.00545371
-0.000994768
0.00672622
-0.00128071
0.00707028
-0.00130448
0.00684266
-0.000959718
0.00625396
-0.000148134
0.00542281
0.00122993
0.00442632
0.0032655
0.0033365
0.00228676
0.00602863
-5.0514e-05
0.00272566
-0.000119775
0.00552298
-4.66709e-05
0.00665312
0.000323272
0.00670034
0.00112349
0.00604245
0.00247422
0.00490323
0.0044933
0.00340372
0.00729478
0.00162484
0.0109642
-0.000332869
-0.00267673
0.0159276
7.9667e-06
0.00271769
0.000186601
0.00534434
0.000719539
0.00612018
0.00178224
0.00563763
0.00354011
0.00428458
0.00615163
0.00229171
0.00975473
-0.000199373
0.0144772
-0.00309765
0.0202712
-0.00612684
-0.0103191
0.0279135
1.39226e-05
0.00270377
0.000398755
0.00495951
0.00141966
0.00509928
0.00331982
0.00373747
0.00633521
0.00126919
0.0106745
-0.00204757
0.0164821
-0.00600701
0.0237871
-0.0104026
0.0324086
-0.0147483
-0.020888
0.0429775
1.169e-05
0.00269208
0.000647246
0.00432395
0.0023161
0.00343042
0.00537514
0.000678439
0.0101341
-0.00348979
0.0167751
-0.00868855
0.0253101
-0.014542
0.0354858
-0.0205783
0.0471583
-0.0264208
-0.033407
0.0596773
5.44434e-05
0.00110176
0.00373303
0.00841992
0.0154269
0.0247057
0.0359029
0.048409
0.0620877
0.07448
-0.0248456
0.00196353
-0.0267963
0.00195064
-0.0287074
0.00191115
-0.030568
0.00186059
-0.0323635
0.00179545
-0.0340756
0.0017121
-0.035683
0.00160746
-0.0371621
0.00147907
-0.0384875
0.00132539
-0.0396325
0.00114507
-0.0405698
0.000937219
-0.0412722
0.000702462
-0.0417142
0.000441977
-0.0418703
0.000156057
-0.0417318
-0.000138415
-0.041309
-0.000422836
-0.0406184
-0.000690618
-0.0396875
-0.000930917
-0.0385418
-0.00114571
-0.00130196
-0.0205006
0.00365308
-0.0222025
0.00365255
-0.0238874
0.00359609
-0.025547
0.00352013
-0.0271704
0.00341887
-0.0287435
0.00328523
-0.0302491
0.00311308
-0.0316672
0.00289718
-0.0329754
0.00263354
-0.0341502
0.00231984
-0.0351671
0.0019542
-0.035999
0.00153432
-0.0366184
0.00106134
-0.0370004
0.00053809
-0.0371021
-3.67249e-05
-0.0369442
-0.000580711
-0.0365182
-0.00111663
-0.0358435
-0.00160562
-0.0349567
-0.00203253
-0.0023306
-0.0129039
0.00484207
-0.0141341
0.00488276
-0.0153835
0.00484549
-0.0166438
0.00478039
-0.0179087
0.00468376
-0.01917
0.00454659
-0.0204169
0.00435998
-0.0216361
0.00411631
-0.022812
0.00380943
-0.0239266
0.00343448
-0.0249607
0.00298832
-0.025896
0.00246957
-0.0267076
0.00187302
-0.0273683
0.0011987
-0.0278546
0.000449586
-0.0281027
-0.000332531
-0.0281191
-0.00110025
-0.0278932
-0.00183149
-0.0274486
-0.00247715
-0.00292358
-0.00362761
0.00535474
-0.00425215
0.0055073
-0.0049289
0.00552224
-0.00564252
0.005494
-0.00639458
0.00543583
-0.00718327
0.00533527
-0.00800235
0.00517907
-0.00884409
0.00495805
-0.00970014
0.00466548
-0.0105611
0.00429544
-0.0114157
0.00384296
-0.0122513
0.00330508
-0.0130597
0.00268148
-0.0138248
0.00196377
-0.0145269
0.00115167
-0.0151069
0.000247516
-0.0155421
-0.00066509
-0.0158019
-0.00157163
-0.0158647
-0.00241442
-0.0030152
0.00616103
0.00522234
0.00615098
0.00551735
0.00606713
0.0056061
0.00593854
0.00562259
0.00575713
0.00561724
0.00551734
0.00557507
0.00522244
0.00547396
0.00487767
0.00530282
0.00448688
0.00505627
0.00405354
0.00472878
0.00358182
0.00431468
0.00307688
0.00381002
0.00254371
0.00321465
0.00198071
0.00252678
0.00139765
0.00173473
0.000798535
0.000846632
0.000249644
-0.0001162
-0.000255451
-0.00106654
-0.000659453
-0.00201041
-0.0028179
0.0165208
0.00462915
0.0169634
0.00507479
0.0173435
0.005226
0.0176977
0.00526841
0.0180085
0.00530641
0.0182648
0.0053188
0.0184689
0.00526979
0.0186242
0.0051476
0.0187303
0.00495017
0.0187864
0.00467267
0.0187922
0.0043088
0.0187481
0.00385419
0.0186527
0.00331001
0.0185011
0.00267842
0.0182915
0.00194434
0.0180259
0.00111221
0.0177106
0.000199032
0.0173428
-0.000698728
0.0169194
-0.00158695
-0.00249673
0.0286076
0.00393512
0.0292018
0.00448052
0.0297908
0.00463704
0.0304039
0.00465529
0.0310077
0.00470258
0.0315912
0.00473532
0.0321581
0.00470296
0.0327068
0.00459884
0.0332314
0.00442561
0.0337265
0.00417758
0.0341878
0.00384742
0.0346118
0.00343022
0.0349918
0.00293004
0.0353225
0.00234767
0.0355954
0.00167144
0.0358061
0.000901521
0.0359393
6.58249e-05
0.0359864
-0.000745821
0.0358951
-0.00149567
-0.00241179
0.0433938
0.00351882
0.043855
0.00401941
0.0444303
0.0040617
0.0450785
0.00400712
0.045756
0.00402506
0.0464709
0.00402039
0.0472269
0.00394695
0.0480131
0.00381271
0.048817
0.00362173
0.04963
0.00336449
0.0504437
0.00303375
0.0512503
0.00262364
0.0520349
0.00214548
0.0527957
0.00158682
0.0535183
0.000948806
0.0542187
0.000201179
0.0547825
-0.000498038
0.0553097
-0.00127296
0.0556945
-0.00188052
-0.0027324
0.0597896
0.00340649
0.0601895
0.00361944
0.0608159
0.00343533
0.0615
0.00332302
0.0622338
0.00329126
0.0630437
0.0032105
0.0639201
0.00307052
0.0648474
0.00288539
0.0658171
0.00265204
0.0668238
0.00235779
0.0678579
0.00199964
0.0689133
0.00156829
0.0699837
0.0010751
0.0710646
0.000505867
0.0721184
-0.000105041
0.0731151
-0.000795479
0.0740589
-0.00144181
0.0749607
-0.00217474
0.0757622
-0.00268209
-0.0034472
0.0750272
0.00285924
0.0760054
0.0026413
0.0769395
0.00250125
0.0778326
0.00242987
0.0787717
0.00235224
0.0797528
0.00222931
0.0807639
0.0020595
0.0818083
0.00184097
0.0828896
0.0015707
0.0840101
0.00123727
0.0851644
0.000845408
0.0863514
0.000381246
0.0875617
-0.000135126
0.0887925
-0.000724997
0.0900164
-0.00132895
0.0912359
-0.00201492
0.0924202
-0.00262615
0.0935836
-0.0033381
0.0946891
-0.00378766
-0.00447346
0.102227
0.00362507
-0.102992
0.101467
0.00340104
0.10083
0.00313844
0.100361
0.00289816
0.100055
0.00265813
0.0998863
0.00239854
0.0998283
0.00211746
0.0998642
0.00180513
0.0999763
0.00145851
0.10015
0.00106377
0.100365
0.000630311
0.100608
0.000138237
0.100855
-0.000382641
0.101095
-0.00096474
0.101299
-0.00153251
0.101457
-0.00217351
0.101544
-0.00271319
0.101561
-0.00335512
0.1015
-0.00372608
-0.00429837
0.111996
0.00362324
-0.111994
0.111923
0.00347364
0.111806
0.0032555
0.111713
0.00299118
0.111663
0.00270774
0.111654
0.00240773
0.111681
0.00209073
0.111741
0.00174458
0.111829
0.00137086
0.111937
0.00095541
0.112052
0.00051527
0.112157
3.34992e-05
0.112254
-0.000479641
0.112324
-0.00103431
0.112349
-0.00155759
0.112323
-0.00214782
0.112233
-0.00262292
0.112077
-0.00319916
0.111862
-0.00351066
-0.00402762
0.118225
0.00364475
-0.118246
0.118324
0.00337446
0.118456
0.00312369
0.1186
0.00284666
0.118758
0.00255027
0.118927
0.00223869
0.119103
0.00191511
0.11928
0.00156672
0.119453
0.00119866
0.119613
0.000794776
0.119753
0.000375623
0.119875
-8.8415e-05
0.119949
-0.000554102
0.119981
-0.00106654
0.119958
-0.00153458
0.119877
-0.00206622
0.119732
-0.00247841
0.119525
-0.00299182
0.119271
-0.00325636
-0.00372584
0.122636
0.00353823
-0.12253
0.122827
0.00318419
0.123061
0.00288956
0.123308
0.00259962
0.123558
0.00229967
0.123811
0.00198603
0.124061
0.00166469
0.124304
0.00132398
0.124531
0.000971886
0.124736
0.000589328
0.124913
0.00019938
0.125053
-0.000228538
0.125145
-0.00064606
0.125186
-0.00110789
0.125171
-0.00151936
0.125096
-0.00199122
0.124963
-0.00234547
0.124771
-0.00279968
0.124538
-0.00302345
-0.00344403
0.126208
0.0033015
-0.125971
0.126462
0.00293052
0.126741
0.00261007
0.127032
0.00230917
0.127321
0.00201012
0.127606
0.00170152
0.127882
0.00138854
0.128145
0.00106059
0.12839
0.000727425
0.128609
0.000369949
0.128796
1.21681e-05
0.128945
-0.000376879
0.129048
-0.00074942
0.129102
-0.00116151
0.129103
-0.0015212
0.129049
-0.001937
0.128945
-0.00224086
0.128785
-0.00264023
0.128591
-0.0028292
-0.00320344
0.12961
0.00301322
-0.129322
0.129892
0.00264841
0.130184
0.00231802
0.130482
0.00201132
0.130776
0.00171589
0.131061
0.00141647
0.131334
0.00111592
0.131591
0.00080369
0.131827
0.000491058
0.132038
0.000159381
0.132217
-0.000167047
0.13236
-0.000519445
0.132462
-0.000851439
0.132518
-0.00121786
0.132529
-0.00153223
0.13249
-0.00189772
0.132408
-0.00215893
0.132277
-0.00250898
0.132117
-0.00266936
-0.00300062
0.133162
0.00271468
-0.132863
0.133449
0.0023613
0.133734
0.002033
0.134017
0.00172804
0.134294
0.00143927
0.134559
0.00115128
0.13481
0.000865379
0.135043
0.00057075
0.135255
0.000278817
0.135442
-2.74958e-05
0.1356
-0.000325036
0.135724
-0.000643701
0.135812
-0.000939684
0.13586
-0.00126531
0.135868
-0.00154065
0.135832
-0.00186192
0.135761
-0.00208739
0.135646
-0.00239399
0.135507
-0.00253099
-0.00282267
0.136932
0.00241688
-0.136634
0.137211
0.00208203
0.137478
0.00176577
0.137737
0.00146966
0.137985
0.00119104
0.13822
0.000916331
0.138439
0.000646528
0.138639
0.000370635
0.138818
9.94564e-05
0.138973
-0.000182451
0.139101
-0.000453169
0.139199
-0.000740909
0.139264
-0.00100495
0.139293
-0.00129435
0.139288
-0.00153607
0.139245
-0.00181866
0.139172
-0.00201405
0.13906
-0.00228252
0.138929
-0.00240012
-0.00265579
0.140866
0.00212898
-0.140579
0.141129
0.00181904
0.141374
0.00152137
0.141604
0.00123957
0.14182
0.00097452
0.142022
0.000715164
0.142205
0.000462876
0.142369
0.000206545
0.142513
-4.37345e-05
0.142632
-0.000301769
0.142726
-0.000547272
0.142791
-0.000806416
0.142828
-0.00104178
0.142833
-0.00129874
0.142808
-0.00151114
0.142749
-0.00175961
0.142664
-0.00192932
0.142546
-0.00216409
0.142411
-0.00226534
-0.00248841
0.144868
0.00186027
-0.1446
0.14511
0.00157725
0.14533
0.00130172
0.145531
0.00103823
0.145716
0.000789943
0.145883
0.000548111
0.146031
0.000314618
0.146159
7.89037e-05
0.146265
-0.000150225
0.146348
-0.000384646
0.146407
-0.000606031
0.146439
-0.00083835
0.146444
-0.00104746
0.146421
-0.00127494
0.146371
-0.00146126
0.14629
-0.00167919
0.146187
-0.00182653
0.146055
-0.00203119
0.145908
-0.00211837
-0.00231194
0.148829
0.00161434
-0.148583
0.149048
0.00135851
0.149242
0.00110719
0.149416
0.000864991
0.149569
0.000636281
0.149703
0.000414136
0.149817
0.000200992
0.14991
-1.39798e-05
0.14998
-0.000220717
0.150028
-0.000431802
0.150051
-0.000629719
0.150049
-0.000836457
0.150023
-0.00102106
0.149969
-0.00122128
0.149892
-0.00138392
0.149787
-0.0015741
0.149662
-0.00170153
0.14951
-0.001879
0.149345
-0.00195383
-0.00212067
0.152636
0.00139044
-0.152412
0.152832
0.0011625
0.153002
0.000937041
0.153149
0.00071844
0.153273
0.000511685
0.153376
0.000311166
0.153458
0.000119538
0.153517
-7.33338e-05
0.153554
-0.000257435
0.153567
-0.000445007
0.153557
-0.000619802
0.153522
-0.000801794
0.153464
-0.000963109
0.153381
-0.00113774
0.153275
-0.00127845
0.153144
-0.00144308
0.152995
-0.00155243
0.152821
-0.00170514
0.152636
-0.00176889
-0.00191151
0.156169
0.0011868
-0.155965
0.156344
0.000987764
0.156491
0.000789568
0.156613
0.00059638
0.156711
0.000413479
0.156786
0.000236186
0.156838
6.75128e-05
0.156867
-0.000102348
0.156873
-0.000263376
0.156855
-0.000427228
0.156815
-0.000579055
0.15675
-0.000736891
0.156663
-0.000875782
0.156551
-0.00102612
0.156419
-0.00114624
0.156263
-0.00128711
0.15609
-0.00137976
0.155895
-0.00150979
0.155689
-0.00156344
-0.00168415
0.159304
0.00100186
-0.159119
0.15946
0.000832248
0.159587
0.000662236
0.159688
0.000495782
0.159763
0.000338128
0.159814
0.00018534
0.159841
4.05986e-05
0.159844
-0.000105465
0.159823
-0.000243079
0.159779
-0.000383099
0.159712
-0.000512123
0.159622
-0.000646307
0.15951
-0.0007635
0.159374
-0.000890628
0.159219
-0.000991245
0.159042
-0.00110987
0.158849
-0.00118695
0.158635
-0.0012961
0.158412
-0.00134045
-0.0014414
0.16192
0.000833044
-0.161751
0.162059
0.000692601
0.16217
0.000551068
0.162254
0.000412065
0.162312
0.000280499
0.162344
0.000152979
0.162352
3.24563e-05
0.162336
-8.91478e-05
0.162296
-0.000203334
0.162233
-0.0003196
0.162147
-0.000426143
0.162038
-0.000537199
0.161908
-0.000633424
0.161755
-0.000738293
0.161584
-0.000820402
0.161393
-0.000918048
0.161186
-0.000980567
0.16096
-0.00107033
0.160726
-0.00110608
-0.00118904
0.16392
0.000674617
-0.163762
0.16405
0.000562574
0.164152
0.00044933
0.164226
0.00033799
0.164274
0.000232768
0.164296
0.00013075
0.164294
3.46167e-05
0.164267
-6.25078e-05
0.164217
-0.000153406
0.164144
-0.000246167
0.164048
-0.000330687
0.16393
-0.000419117
0.163792
-0.000495112
0.163632
-0.000578491
0.163455
-0.00064301
0.163257
-0.000720619
0.163046
-0.000769483
0.162817
-0.000840925
0.16258
-0.000868699
-0.000934873
0.165283
0.000517618
-0.165126
0.165413
0.000433253
0.165514
0.000348016
0.165588
0.000264333
0.165635
0.000185528
0.165656
0.000109049
0.165654
3.70673e-05
0.165627
-3.55326e-05
0.165577
-0.000103461
0.165504
-0.000172935
0.165409
-0.000235866
0.165292
-0.000302034
0.165155
-0.000358437
0.164998
-0.000420818
0.164823
-0.000468513
0.164629
-0.00052663
0.164422
-0.000562591
0.164198
-0.000616225
0.163965
-0.000636575
-0.000686458
0.166092
0.000354177
-0.165929
0.166228
0.0002971
0.166336
0.000239743
0.166417
0.000183795
0.166471
0.000131394
0.1665
8.04695e-05
0.166504
3.25314e-05
0.166484
-1.56818e-05
0.166442
-6.08878e-05
0.166376
-0.000107195
0.166289
-0.00014888
0.16618
-0.000192974
0.166052
-0.000230248
0.165903
-0.000271851
0.165738
-0.000303271
0.165553
-0.00034209
0.165356
-0.000365699
0.165142
-0.000401602
0.16492
-0.00041492
-0.000448459
0.166505
0.000182151
-0.166333
0.16665
0.000151834
0.166768
0.000122551
0.166857
9.45123e-05
0.16692
6.84649e-05
0.166957
4.30575e-05
0.16697
1.92978e-05
0.16696
-4.92084e-06
0.166926
-2.74681e-05
0.16687
-5.06889e-05
0.166792
-7.13637e-05
0.166693
-9.35392e-05
0.166574
-0.000111913
0.166436
-0.000132911
0.166281
-0.000148272
0.166106
-0.000167993
0.16592
-0.000179352
0.165716
-0.000197765
0.165505
-0.000203892
-0.000221076
0.166671
-0.166489
0.166823
0.166946
0.16704
0.167109
0.167152
0.167171
0.167166
0.167139
0.167088
0.167017
0.166923
0.166811
0.166678
0.16653
0.166362
0.166183
0.165985
0.165781
0.0947137
0.0172051
-0.0932591
0.096298
0.0272209
0.0980436
0.0371799
0.0998973
0.046996
0.101926
0.056388
0.103989
0.0654295
0.105835
0.0738063
0.107659
0.08091
0.105905
0.088558
0.0876994
0.0966833
0.0158704
-0.0953486
0.0981918
0.0257123
0.0999252
0.0354466
0.101855
0.0450661
0.103922
0.0543213
0.106359
0.0629918
0.10842
0.0717456
0.111353
0.0779767
0.112796
0.0871157
0.0885014
0.0989113
0.0146609
-0.0977017
0.100351
0.0242723
0.102011
0.0337866
0.103999
0.0430783
0.106052
0.0522678
0.108677
0.0603673
0.111084
0.0693388
0.114
0.0750609
0.117065
0.0840504
0.0873201
0.101313
0.0135569
-0.100209
0.102714
0.0228713
0.104322
0.0321788
0.10633
0.0410698
0.108441
0.0501573
0.111013
0.0577948
0.113749
0.0666029
0.116433
0.0723767
0.119985
0.0804988
0.0847753
0.103835
0.0125317
-0.10281
0.105207
0.0214992
0.106823
0.030563
0.10882
0.0390729
0.111055
0.0479223
0.113529
0.0553205
0.116465
0.0636673
0.119192
0.0696489
0.122748
0.0769428
0.0815524
0.106433
0.0115591
-0.105461
0.107775
0.0201574
0.10944
0.0288984
0.111433
0.0370792
0.113803
0.0455527
0.116304
0.0528187
0.119349
0.0606223
0.122313
0.0666852
0.125816
0.0734398
0.0780467
0.109057
0.0106221
-0.10812
0.110377
0.0188379
0.1121
0.0271756
0.114136
0.0350433
0.116622
0.0430661
0.119274
0.0501665
0.12241
0.0574871
0.125624
0.0634706
0.129185
0.0698787
0.0743686
0.111655
0.00971388
-0.110747
0.112971
0.0175215
0.114748
0.0253987
0.116872
0.0329193
0.119466
0.0404721
0.122313
0.0473194
0.125571
0.054229
0.129017
0.0600244
0.132759
0.0661367
0.0704939
0.114175
0.00883148
-0.113292
0.115508
0.0161887
0.117338
0.0235683
0.119574
0.0306829
0.122284
0.0377624
0.125328
0.0442753
0.128763
0.0507936
0.13245
0.0563377
0.136451
0.0621357
0.0663665
0.116569
0.00797077
-0.115709
0.117931
0.014827
0.11982
0.0216794
0.122175
0.0283274
0.12502
0.0349184
0.128261
0.0410341
0.131918
0.0471369
0.135866
0.0523895
0.140165
0.0578359
0.0619324
0.118795
0.00712631
-0.117951
0.120191
0.0134318
0.122145
0.019725
0.124619
0.0258535
0.127613
0.0319243
0.131054
0.0375928
0.134953
0.0432379
0.139179
0.0481635
0.1438
0.0532154
0.057149
0.120815
0.00629401
-0.119982
0.122243
0.0120036
0.124265
0.0177024
0.126854
0.0232651
0.130002
0.0287757
0.133643
0.0339524
0.137787
0.0390939
0.142299
0.0436507
0.147251
0.0482634
0.0519885
0.122593
0.00547299
-0.121772
0.12405
0.010547
0.126137
0.0156148
0.128832
0.0205706
0.132128
0.0254796
0.135959
0.0301215
0.140339
0.0347139
0.145137
0.0388529
0.150418
0.0429821
0.0464413
0.124095
0.00466493
-0.123287
0.125573
0.00906886
0.127717
0.0134704
0.130505
0.0177826
0.133934
0.0220513
0.137939
0.0261161
0.142536
0.0301174
0.147603
0.0337853
0.153195
0.0373903
0.0405175
0.125278
0.00387058
-0.124483
0.126771
0.00757529
0.128962
0.0112796
0.131829
0.0149162
0.135368
0.0185115
0.139525
0.0219593
0.144309
0.0253339
0.149616
0.0284777
0.155483
0.0315237
0.0342495
0.126113
0.0030863
-0.125329
0.127619
0.00606961
0.129846
0.00905262
0.132774
0.011988
0.136401
0.0148846
0.140679
0.0176812
0.145611
0.0204022
0.151115
0.0229736
0.157205
0.0254338
0.0276925
0.126623
0.00230593
-0.125843
0.12814
0.0045535
0.130393
0.00679954
0.133365
0.00901545
0.137053
0.011197
0.141418
0.0133158
0.146454
0.0153661
0.152102
0.017326
0.158353
0.0191825
0.0209194
0.126899
0.0015286
-0.126121
0.128421
0.00303155
0.130688
0.00453235
0.133687
0.00601672
0.137409
0.0074747
0.141828
0.00889705
0.146926
0.0102675
0.152664
0.0115879
0.159016
0.0128305
0.0140072
0.127049
0.000762432
-0.126283
0.128569
0.00151165
0.130838
0.00226359
0.133846
0.00300838
0.137582
0.00373845
0.142027
0.00445261
0.147155
0.0051388
0.15294
0.0058029
0.159345
0.00642569
0.00701926
0.127128
-0.126365
0.128639
0.130903
0.133911
0.13765
0.142102
0.147241
0.153044
0.15947
0.0449467
0.0570474
-0.0511057
-0.0508885
0.0388761
0.0562652
-0.0501945
0.03309
0.0559092
-0.0501231
0.027522
0.0560833
-0.0505152
0.0220826
0.0567061
-0.0512666
0.0167234
0.057792
-0.0524329
0.011438
0.0592883
-0.0540028
0.00637344
0.0600853
-0.0550207
0.00210948
0.0553643
-0.0511003
0.0325192
-0.0304097
0.0422756
0.0629834
-0.0482116
0.036432
0.0621088
0.0307956
0.0615456
0.0253969
0.061482
0.0201706
0.0619324
0.0150534
0.0629092
0.0100498
0.0642918
0.00535861
0.0647765
0.00160637
0.0591165
0.0341256
0.0388288
0.0685572
-0.0444026
0.0332942
0.0676434
0.02791
0.0669298
0.0227452
0.0666468
0.0177784
0.0668992
0.0129605
0.0677272
0.0083176
0.0689347
0.00410625
0.0689879
0.000988986
0.0622338
0.0351146
0.0343694
0.0737201
-0.0395323
0.0292755
0.0727373
0.0242889
0.0719163
0.0194842
0.0714515
0.0148735
0.0715099
0.0104353
0.0721654
0.00623333
0.0731366
0.0026126
0.0726086
0.000239968
0.0646064
0.0353545
0.0289788
0.0784159
-0.0336747
0.0243849
0.0773313
0.0199006
0.0764006
0.0155749
0.0757772
0.0114279
0.075657
0.00746747
0.0761258
0.00379983
0.0768043
0.000841006
0.0755674
-0.000517236
0.0659647
0.0348373
0.0226721
0.0825405
-0.0267967
0.0186701
0.0813333
0.0147822
0.0802884
0.0110352
0.0795242
0.00745263
0.0792396
0.00407518
0.0795033
0.00108641
0.079793
-0.00101202
0.0776658
-0.00131644
0.0662691
0.0335208
0.0155564
0.0859815
-0.0189973
0.0122293
0.0846604
0.00901407
0.0835037
0.00592349
0.0826147
0.00299327
0.0821698
0.000287755
0.0822088
-0.00190597
0.0819868
-0.0029518
0.0787117
-0.00213392
0.0654512
0.0313869
0.00772464
0.0886495
-0.0103927
0.00514031
0.0872447
0.00267851
0.0859655
0.000330258
0.084963
-0.00190292
0.084403
-0.00384867
0.0841545
-0.00512637
0.0832645
-0.00502538
0.0786107
-0.00292085
0.0633467
0.0284661
-0.000724932
0.0905829
-0.00120842
-0.00248166
0.0890014
-0.00415583
0.0876397
-0.00575031
0.0865575
-0.00718634
0.085839
-0.0082687
0.0852369
-0.0084978
0.0834936
-0.00708363
0.0771965
-0.00360621
0.0598693
0.0248599
-0.00958264
0.00866848
-0.0104972
-0.0113555
-0.0121351
-0.0127364
-0.0128562
-0.011876
-0.00898885
-0.00410597
0.0406216
0.00383562
-0.0444572
0.0366406
0.00398096
0.0324909
0.00414972
0.0281498
0.00434113
0.0235866
0.00456318
0.0187612
0.00482538
0.0136353
0.00512596
0.00826184
0.00537344
0.0031338
0.00512803
0.0031338
0.0410924
0.00778868
-0.0450455
0.0370085
0.00806492
0.0327703
0.00838794
0.028355
0.00875636
0.0237317
0.00918655
0.0188591
0.00969796
0.0136961
0.010289
0.00829272
0.0107768
0.00315104
0.0102697
0.00628484
0.0419733
0.0119643
-0.0461488
0.0376941
0.0123441
0.0332879
0.0127941
0.0287316
0.0133127
0.023993
0.0139251
0.0190299
0.0146611
0.0137995
0.0155194
0.00834886
0.0162275
0.00317042
0.0154482
0.00945526
0.0431469
0.0164403
-0.047623
0.0386032
0.0168879
0.0339687
0.0174285
0.0292204
0.0180611
0.0243255
0.01882
0.0192405
0.0197461
0.0139204
0.0208395
0.00840829
0.0217396
0.00318985
0.0206666
0.0126451
0.0444543
0.0212618
-0.0492758
0.0396042
0.021738
0.0347049
0.0223278
0.0297351
0.0230308
0.0246618
0.0238932
0.0194395
0.0249685
0.0140208
0.0262581
0.00844643
0.027314
0.00319643
0.0259166
0.0158415
0.0457205
0.0264295
-0.0508882
0.0405571
0.0269015
0.0353822
0.0275027
0.0301818
0.0282312
0.0249252
0.0291498
0.0195656
0.0303281
0.0140545
0.0317692
0.00843199
0.0329365
0.00317504
0.0311735
0.0190166
0.0467244
0.031929
-0.0522239
0.0412569
0.0323689
0.0358283
0.0329313
0.0304281
0.0336314
0.0250168
0.0345611
0.0195449
0.0358
0.0139671
0.037347
0.00832919
0.0385744
0.00310923
0.0363935
0.0221258
0.0474136
0.0376999
-0.0531844
0.0416516
0.0381309
0.0359911
0.0385919
0.0304186
0.0392039
0.0248804
0.0400993
0.0193261
0.0413544
0.0137162
0.0429569
0.00810793
0.0441826
0.00298692
0.0415145
0.0251127
0.0472682
0.0438932
-0.0534615
0.0412884
0.0441107
0.0355589
0.0443214
0.0299374
0.0448254
0.0243621
0.0456746
0.0188031
0.0469134
0.0132323
0.0485277
0.00772626
0.0496887
0.00279374
0.046447
0.0279065
0.0466508
-0.0538633
0.0405669
0.0347652
0.0290753
0.0234833
0.0179638
0.0124886
0.00715656
0.00250326
0.0485021
-0.000157896
0.0486584
-0.000156291
0.0488123
-0.000153878
0.0489581
-0.000145782
0.0490906
-0.000132485
0.0492049
-0.000114353
0.0492959
-9.10093e-05
0.0493576
-6.16274e-05
0.0493821
-2.45135e-05
0.0493644
1.76567e-05
0.0493013
6.31144e-05
0.0491824
0.000118897
0.0489968
0.000185599
0.0487322
0.000264652
0.0483741
0.000358051
0.0479058
0.000468327
0.0473073
0.000598466
0.0465544
0.000752876
0.0456214
0.000933058
0.00116415
0.0492998
-0.000315916
0.0494542
-0.000310689
0.0496036
-0.000303254
0.0497437
-0.00028586
0.04987
-0.000258843
0.0499779
-0.000222245
0.050062
-0.000175084
0.050116
-0.00011559
0.0501314
-3.99908e-05
0.050106
4.31228e-05
0.0500338
0.000135251
0.0499048
0.00024792
0.0497079
0.000382505
0.0494307
0.000541897
0.0490586
0.000730087
0.0485748
0.000952155
0.0479593
0.00121402
0.0471874
0.00152475
0.0462341
0.00188632
0.00235278
0.050868
-0.000459878
0.0510087
-0.000451343
0.0511447
-0.000439213
0.0512709
-0.000412135
0.0513827
-0.000370578
0.0514749
-0.000314467
0.0515422
-0.000242364
0.0515781
-0.000151497
0.0515741
-3.60651e-05
0.0515317
8.55351e-05
0.0514396
0.000227388
0.0512881
0.000399379
0.0510665
0.000604174
0.050762
0.000846354
0.0503602
0.00113192
0.0498437
0.00146863
0.0491926
0.00186507
0.0483816
0.00233584
0.0473874
0.00288044
0.00359137
0.0531451
-0.000576279
0.0532582
-0.000564454
0.0533666
-0.000547633
0.0534651
-0.000510665
0.0535485
-0.000453897
0.0536114
-0.000377354
0.0536483
-0.000279293
0.0536521
-0.000155269
0.0536089
7.03853e-06
0.0535347
0.000159759
0.0534066
0.00035547
0.0532159
0.000590149
0.0529519
0.000868174
0.0526018
0.00119641
0.0521509
0.0015828
0.0515814
0.00203818
0.0508735
0.00257297
0.0499998
0.00320955
0.0489416
0.00393863
0.00491001
0.0560471
-0.000646259
0.0561135
-0.000630881
0.0561743
-0.00060844
0.0562241
-0.000560443
0.056257
-0.00048676
0.0562671
-0.000387442
0.0562478
-0.000260061
0.0561911
-9.85715e-05
0.0561113
8.69053e-05
0.0559784
0.000292607
0.0557899
0.000544003
0.0555359
0.000844132
0.0552055
0.00119862
0.0547853
0.00161659
0.0542607
0.00210735
0.0536127
0.0026862
0.0528226
0.00336305
0.0518586
0.00417353
0.0507101
0.00508717
0.00634428
0.0594773
-0.000644837
0.0594714
-0.000624918
0.0594572
-0.000594262
0.0594298
-0.000533062
0.0593836
-0.000440556
0.0593133
-0.000317111
0.0592115
-0.000158272
0.0590715
4.14625e-05
0.0589072
0.000251161
0.0586883
0.000511525
0.0584102
0.000822095
0.0580637
0.00119066
0.0576379
0.00162437
0.0571184
0.00213608
0.0564913
0.00273447
0.0557347
0.00344285
0.0548329
0.00426479
0.0537461
0.00526039
0.0524772
0.00635606
0.00793326
0.0633375
-0.000539691
0.0632251
-0.000512596
0.0630989
-0.000468023
0.0629558
-0.000389993
0.0627923
-0.000277067
0.0625987
-0.000123441
0.0623731
6.73394e-05
0.0621344
0.000280084
0.0618436
0.000542002
0.0614994
0.00085575
0.0610948
0.00122664
0.060619
0.00166653
0.0600621
0.00218122
0.0594075
0.00279068
0.0586443
0.00349767
0.0577448
0.00434235
0.0567013
0.00530829
0.0554567
0.006505
0.0540331
0.00777964
0.00974243
0.0675343
-0.0002833
0.0672708
-0.000249142
0.0669882
-0.00018543
0.0666798
-8.15862e-05
0.0663452
5.75671e-05
0.0659975
0.000224189
0.065629
0.000435931
0.0652156
0.000693405
0.0647572
0.00100041
0.0642455
0.00136745
0.0636736
0.00179854
0.0630283
0.00231186
0.0623024
0.0029071
0.0614736
0.00361947
0.0605374
0.00443392
0.0594516
0.00542816
0.0582292
0.00653066
0.0567887
0.0079455
0.055193
0.00937534
0.011751
0.0719861
0.000183859
0.071508
0.000228985
0.0710106
0.00031195
0.0704978
0.000431261
0.0699687
0.000586675
0.0694098
0.000783032
0.0688207
0.00102505
0.0681941
0.00132004
0.0675247
0.00166982
0.0668022
0.00208993
0.0660212
0.00257956
0.0651649
0.0031681
0.064232
0.00384002
0.0631927
0.00465872
0.0620587
0.00556795
0.0607568
0.00673008
0.0593279
0.00795956
0.0576019
0.00967149
0.0557798
0.0111974
0.0140694
0.076667
0.000977295
0.0759064
0.000989601
0.0751457
0.00107263
0.0743682
0.00120879
0.0735692
0.00138561
0.0727462
0.00160603
0.0718974
0.00187387
0.0710152
0.00220225
0.0700941
0.00259094
0.069122
0.00306202
0.0680961
0.00360548
0.0669953
0.00426891
0.0658256
0.00500973
0.0645461
0.00593822
0.0631962
0.00691787
0.061679
0.00824721
0.0601605
0.00947806
0.0583054
0.0115266
0.0566177
0.0128851
0.0168238
0.0753467
0.000905683
0.0753582
0.00097801
0.0753408
0.00109012
0.0753125
0.00123704
0.0752835
0.00141464
0.0752571
0.00163237
0.0752372
0.0018938
0.0752241
0.00221536
0.0752231
0.00259194
0.0752331
0.00305201
0.0752671
0.00357145
0.0753208
0.0042153
0.0754252
0.00490526
0.0755596
0.00580388
0.0758022
0.00667521
0.0760876
0.00796182
0.0766171
0.00894858
0.0772538
0.0108899
0.0785935
0.0115454
0.014524
0.0808933
0.0801807
0.00089904
0.0801667
0.000991996
0.080139