/*--------------------------------*- C++ -*----------------------------------*\
| =========                 |                                                 |
| \\      /  F ield         | OpenFOAM: The Open Source CFD Toolbox           |
|  \\    /   O peration     | Version:  4.1                                   |
|   \\  /    A nd           | Web:      www.OpenFOAM.org                      |
|    \\/     M anipulation  |                                                 |
\*---------------------------------------------------------------------------*/
FoamFile
{
    version     2.0;
    format      ascii;
    class       surfaceScalarField;
    location    "10";
    object      phi;
}
// * * * * * * * * * * * * * * * * * * * * * * * * * * * * * * * * * * * * * //

dimensions      [0 3 -1 0 0 0 0];

internalField   nonuniform List<scalar> 
3890
(
0.000386761
0.000881554
-0.00126832
0.00183518
-0.000512401
-0.000936016
0.00451656
-0.00382309
0.00114171
0.00851397
-0.00834147
0.00434406
0.0138261
-0.01358
0.0082679
0.0203697
-0.0191523
0.0126087
0.0279991
-0.0247456
0.0171163
0.036553
-0.0301165
0.0215625
0.0459766
-0.0351068
0.0256832
-0.0396475
0.0291221
0.056502
0.000558552
0.000323002
0.00249816
-0.00245201
0.00595623
-0.00728116
0.0109442
-0.0133295
0.0173453
-0.0199811
0.024928
-0.026735
0.0333844
-0.033202
0.0423811
-0.0391131
0.0515992
-0.044325
-0.0487599
0.0607117
0.000762927
-0.000439925
0.00324714
-0.00493622
0.00750999
-0.011544
0.0134317
-0.0192511
0.0207208
-0.0272702
0.0289633
-0.0349775
0.0376985
-0.0419372
0.0464895
-0.0479041
0.0549606
-0.0527961
-0.0566214
0.062822
0.000997576
-0.0014375
0.00405675
-0.0079954
0.0090918
-0.0165791
0.0157855
-0.0259448
0.0236309
-0.0351157
0.0320401
-0.0433867
0.0404595
-0.0503566
0.0484479
-0.0558925
0.0557052
-0.0600533
-0.0629978
0.0620816
0.00125417
-0.00269167
0.00488082
-0.011622
0.0105773
-0.0222755
0.0177741
-0.0331417
0.0257491
-0.0430907
0.0338027
-0.0514402
0.0413888
-0.0579428
0.0481673
-0.062671
0.0539923
-0.0658783
-0.0678761
0.0588706
0.00151867
-0.00421034
0.0056566
-0.01576
0.011823
-0.0284419
0.0191755
-0.0404941
0.0268307
-0.0507459
0.0340789
-0.0586885
0.0404828
-0.0643467
0.0458665
-0.0680547
0.0502476
-0.0702594
-0.0713822
0.0537537
0.00177272
-0.00598306
0.00631372
-0.020301
0.0126946
-0.0348228
0.0198304
-0.04763
0.0267754
-0.0576908
0.0329165
-0.0648296
0.037991
-0.0694212
0.0419985
-0.0720622
0.0450868
-0.0733478
-0.0737507
0.0474554
0.00199571
-0.00797876
0.00678536
-0.0250906
0.013094
-0.0411314
0.0196749
-0.054211
0.0256328
-0.0636487
0.0305276
-0.0697244
0.0342862
-0.0731798
0.0370502
-0.0748262
0.0390425
-0.07534
-0.0751899
0.0404816
0.00216724
-0.010146
0.00701936
-0.0299428
0.0129762
-0.0470882
0.0187406
-0.0599754
0.0235617
-0.0684697
0.0272021
-0.0733649
0.029753
-0.0757307
0.0314472
-0.0765204
0.0325329
-0.0764257
-0.0758714
0.0332144
0.0022697
-0.0124157
0.00698607
-0.0346591
0.0123511
-0.0524532
0.0171301
-0.0647544
0.0207718
-0.0721114
0.0232312
-0.0758243
0.0247183
-0.0772178
0.0255078
-0.0773098
0.0258378
-0.0767557
0.025881
-0.0759146
-0.000374835
0.000374835
-0.00114362
0.000768784
-0.00210414
0.000960523
-0.00313973
0.00103559
-0.00418435
0.00104462
-0.00520662
0.00102227
-0.00619996
0.00099334
-0.00717507
0.000975108
-0.00815471
0.000979637
0.00101518
-0.00916988
-0.000354513
0.000729348
-0.00107103
0.0014853
-0.0019568
0.0018463
-0.00289428
0.00197306
-0.00381508
0.00196543
-0.00468499
0.00189217
-0.00549453
0.00180288
-0.00625293
0.00173351
-0.0069842
0.00171091
0.00175548
-0.0077245
-0.000313368
0.00104272
-0.000934482
0.00210641
-0.00167689
0.00258871
-0.00242451
0.00272067
-0.00310592
0.00264684
-0.00368114
0.0024674
-0.00413455
0.0022563
-0.00447173
0.00207069
-0.00471844
0.00195762
0.00195763
-0.00492058
-0.000258725
0.00130144
-0.000746123
0.00259381
-0.00128539
0.00312797
-0.00176214
0.00319743
-0.00210129
0.00298599
-0.00225507
0.00262118
-0.00219821
0.00219944
-0.00192876
0.00180123
-0.00147416
0.00150303
0.00138643
-0.000902969
-0.000195248
0.00149669
-0.000518289
0.00291685
-0.000802103
0.00341179
-0.000934767
0.00333009
-0.000837917
0.00288914
-0.000455408
0.00223867
0.000250291
0.00149374
0.00129408
0.000757447
0.00265395
0.000143153
-0.000199141
0.00423952
-0.000126048
0.00162274
-0.00025759
0.00304839
-0.000235034
0.00338923
5.08725e-05
0.00304418
0.000680371
0.00225964
0.00171588
0.00120316
0.00320603
3.59475e-06
0.00518119
-0.00121771
0.00763403
-0.00230969
-0.00302511
0.01046
-5.15073e-05
0.00167425
3.8397e-05
0.00295849
0.000425352
0.00300228
0.00121794
0.0022516
0.0024963
0.000981279
0.00432356
-0.0006241
0.00675154
-0.00242439
0.00981898
-0.00428515
0.0135359
-0.00602657
-0.00729819
0.0178089
3.2206e-05
0.00164204
0.000379976
0.00261072
0.00120405
0.0021782
0.00261348
0.00084217
0.00468623
-0.00109148
0.0074769
-0.00341477
0.0110225
-0.00597
0.0153472
-0.00860988
0.0204607
-0.01114
-0.0131516
0.0263141
0.000128675
0.00151336
0.00078351
0.00195588
0.0021327
0.000829018
0.00428824
-0.00131337
0.00732151
-0.00412474
0.0112654
-0.00735866
0.0161168
-0.0108214
0.0218444
-0.0143375
0.0284051
-0.0177008
-0.0205425
0.035796
0.000245049
0.00126492
0.00323564
0.00626633
0.0104095
0.0156595
0.0219544
0.0291795
0.037162
0.0457415
-0.00976589
0.000596004
-0.0103547
0.000588765
-0.0109107
0.000555999
-0.0114229
0.000512264
-0.0118853
0.000462337
-0.0122932
0.000407947
-0.0126438
0.000350598
-0.0129355
0.000291711
-0.0131681
0.00023255
-0.0133423
0.000174271
-0.0134603
0.000117946
-0.0135248
6.44964e-05
-0.0135386
1.3854e-05
-0.01351
-2.86104e-05
-0.0134444
-6.56613e-05
-0.0133471
-9.72919e-05
-0.0132245
-0.000122557
-0.0130832
-0.000141328
-0.0129289
-0.000154261
-0.000160679
-0.00826185
0.00113335
-0.00879807
0.00112499
-0.00930497
0.00106289
-0.00977222
0.000979521
-0.0101941
0.000884186
-0.0105659
0.00077974
-0.0108844
0.000669119
-0.011148
0.000555281
-0.0113562
0.000440832
-0.0115101
0.000328096
-0.0116113
0.000219208
-0.0116628
0.000115998
-0.0116667
1.76853e-05
-0.0116325
-6.27182e-05
-0.0115642
-0.000133987
-0.0114672
-0.000194303
-0.0113477
-0.000242034
-0.0112121
-0.000276938
-0.0110662
-0.00030014
-0.000310945
-0.00534787
0.00156063
-0.00578387
0.001561
-0.00619557
0.00147459
-0.00657391
0.00135786
-0.0069143
0.00122458
-0.00721212
0.00107756
-0.00746391
0.000920912
-0.00766797
0.000759339
-0.00782404
0.000596897
-0.007933
0.00043706
-0.00799676
0.000282961
-0.00801829
0.000137534
-0.00799663
-3.98344e-06
-0.00794756
-0.000111784
-0.00786957
-0.000211976
-0.00776858
-0.000295295
-0.00765066
-0.000359956
-0.00752195
-0.00040565
-0.00738776
-0.000434328
-0.000447127
-0.00116586
0.00182352
-0.00146542
0.00186055
-0.00174464
0.00175382
-0.00199386
0.00160708
-0.00221253
0.00144325
-0.00239719
0.00126223
-0.00254461
0.00106833
-0.00265361
0.000868334
-0.00272447
0.000667758
-0.00275844
0.000471038
-0.0027572
0.000281718
-0.00272127
0.000101603
-0.00266516
-6.00909e-05
-0.00258192
-0.000195025
-0.0024795
-0.000314396
-0.00236284
-0.00041196
-0.00223729
-0.000485507
-0.00210853
-0.00053441
-0.00198155
-0.000561304
-0.000570806
0.00415027
0.00191278
0.00400753
0.00200329
0.00388908
0.00187227
0.0038025
0.00169366
0.00374169
0.00150405
0.00370756
0.00129635
0.00370196
0.00107393
0.0037242
0.00084609
0.00377248
0.000619486
0.00384468
0.000398838
0.00393856
0.000187839
0.00405966
-1.95045e-05
0.00417863
-0.00017906
0.00431397
-0.000330365
0.00445799
-0.000458418
0.00460625
-0.000560216
0.00475429
-0.000633554
0.00489717
-0.000677286
0.00503004
-0.000694176
-0.000693775
0.0105391
0.00183363
0.0105532
0.00198927
0.0106103
0.00181513
0.0107098
0.00159416
0.0108345
0.00137934
0.0109811
0.00114981
0.011148
0.000906952
0.0113316
0.000662555
0.0115284
0.000422629
0.0117334
0.000193844
0.011956
-3.47463e-05
0.0121531
-0.000216645
0.012363
-0.000388891
0.0125711
-0.000538439
0.0127748
-0.000662149
0.0129717
-0.000757153
0.0131591
-0.000820969
0.0133337
-0.000851888
0.0134913
-0.000851721
-0.000833467
0.0179973
0.00164528
0.0181571
0.00182942
0.0184017
0.00157059
0.0187018
0.00129401
0.0190271
0.00105408
0.0193701
0.000806784
0.0197255
0.000551617
0.0200789
0.000309078
0.0204406
6.09882e-05
0.0207849
-0.000150499
0.0211006
-0.00035038
0.0214156
-0.000531646
0.0217179
-0.000691253
0.0220061
-0.000826579
0.0222789
-0.000935002
0.0225357
-0.00101391
0.0227758
-0.00106106
0.0229983
-0.00107442
0.0232011
-0.00105451
-0.00101237
0.0265178
0.00144156
0.0268367
0.00151052
0.0272972
0.00111008
0.0278038
0.000787467
0.0283204
0.000537413
0.0288391
0.000288135
0.0293738
1.68897e-05
0.0298724
-0.00018952
0.0303337
-0.00040035
0.03078
-0.000596725
0.0312056
-0.000776001
0.0316103
-0.000936366
0.0319938
-0.00107477
0.0323562
-0.00118895
0.0326979
-0.00127669
0.0330196
-0.00133567
0.0333227
-0.00136413
0.0336082
-0.00135988
0.0338777
-0.00132405
-0.00125777
0.0359747
0.00126292
0.0365849
0.000900264
0.0372987
0.000396324
0.0379816
0.000104571
0.0386343
-0.00011532
0.0392497
-0.000327261
0.0398098
-0.000543158
0.0403584
-0.000738161
0.0408805
-0.000922425
0.0413795
-0.0010958
0.0418583
-0.00125472
0.0423178
-0.00139589
0.0427596
-0.00151656
0.0431848
-0.00161421
0.0435947
-0.00168657
0.0439903
-0.00173126
0.0443734
-0.00174724
0.0447452
-0.00173162
0.045111
-0.00168984
-0.00160711
0.046563
0.000441449
0.047553
-8.97228e-05
0.0482705
-0.000321181
0.048849
-0.000473923
0.0493858
-0.000652129
0.0498997
-0.000841125
0.0503897
-0.00103319
0.0508738
-0.00122223
0.0513569
-0.00140557
0.051841
-0.00157992
0.0523276
-0.00174126
0.0528174
-0.00188571
0.0533108
-0.00200997
0.0538076
-0.002111
0.0543075
-0.00218653
0.0548102
-0.00223389
0.0553162
-0.00225324
0.0558243
-0.00223976
0.0563401
-0.0022056
-0.00211748
0.0687596
0.0017162
-0.0700344
0.067575
0.00109495
0.0666755
0.000578333
0.0659955
0.000205985
0.065453
-0.000109544
0.0650055
-0.000393672
0.064623
-0.000650667
0.0642868
-0.000886075
0.0639828
-0.00110158
0.0637011
-0.00129815
0.0634348
-0.00147495
0.0631794
-0.00163038
0.0629323
-0.00176282
0.0626918
-0.00187048
0.0624576
-0.00195234
0.06223
-0.00200634
0.062011
-0.0020342
0.0618011
-0.00202985
0.061605
-0.00200954
-0.00193101
0.0801068
0.0024449
-0.0808355
0.0791302
0.00207155
0.0781466
0.00156193
0.0772678
0.00108478
0.0764882
0.000670115
0.0757917
0.000302816
0.075166
-2.49353e-05
0.0746022
-0.000322275
0.0740872
-0.000586604
0.0736113
-0.000822254
0.0731664
-0.00103009
0.0727465
-0.00121043
0.072347
-0.00136333
0.0719648
-0.00148833
0.0715982
-0.00158573
0.0712461
-0.00165421
0.0709087
-0.00169679
0.0705862
-0.00170739
0.07028
-0.00170334
-0.00164594
0.0884006
0.00324585
-0.0892016
0.0876087
0.00286348
0.0867966
0.00237402
0.0860109
0.00187049
0.0852659
0.00141505
0.084561
0.00100779
0.0838971
0.000638968
0.0832705
0.000304277
0.0826796
4.27262e-06
0.0821204
-0.00026306
0.0815888
-0.000498452
0.0810814
-0.000703027
0.0805955
-0.000877401
0.0801289
-0.00102177
0.0796803
-0.00113711
0.0792489
-0.00122281
0.0788343
-0.00128216
0.0784376
-0.00131068
0.0780568
-0.00132257
-0.00129046
0.094262
0.00398924
-0.0950054
0.0936128
0.00351261
0.0929733
0.00301356
0.0923377
0.00250606
0.091716
0.00203674
0.0911103
0.00161353
0.0905204
0.00122885
0.0899462
0.000878475
0.0893887
0.000561802
0.0888473
0.000278334
0.0883215
2.73293e-05
0.0878108
-0.000192311
0.0873145
-0.000381157
0.0868325
-0.00053974
0.0863645
-0.000669076
0.0859109
-0.000769235
0.0854714
-0.000842679
0.0850485
-0.000887745
0.0846384
-0.000912466
-0.000904011
0.0979759
0.00454303
-0.0985297
0.0974943
0.0039942
0.0970288
0.0034791
0.0965584
0.00297643
0.0960867
0.00250849
0.0956165
0.00208374
0.0951476
0.00169772
0.0946801
0.00134602
0.0942147
0.00102714
0.0937525
0.000740557
0.0932943
0.000485517
0.0928409
0.000261138
0.092393
6.67061e-05
0.0919517
-9.84736e-05
0.0915178
-0.000235163
0.0910927
-0.000344162
0.0906765
-0.000426471
0.0902724
-0.000483616
0.0898767
-0.000516789
-0.000526574
0.09993
0.00486709
-0.100254
0.0996374
0.00428674
0.0993505
0.00376605
0.0990498
0.00327707
0.0987353
0.00282302
0.0984105
0.00240854
0.0980767
0.00203154
0.0977343
0.0016884
0.0973843
0.00137714
0.097028
0.00109679
0.096667
0.000846565
0.0963026
0.000625573
0.0959362
0.000433089
0.0955695
0.000268244
0.0952037
0.000130603
0.0948409
1.86551e-05
0.0944815
-6.71036e-05
0.0941288
-0.000130881
0.0937803
-0.000168308
-0.000189488
0.100602
0.00497254
-0.100708
0.100493
0.00439641
0.100372
0.00388629
0.10023
0.00341976
0.100064
0.00298905
0.099878
0.00259426
0.0996751
0.0022344
0.0994565
0.00190704
0.0992234
0.00161018
0.0989777
0.00134256
0.0987209
0.00110329
0.098455
0.000891467
0.0981817
0.000706427
0.0979028
0.000547148
0.0976199
0.00041349
0.0973351
0.000303421
0.0970495
0.00021858
0.0967655
0.000153088
0.0964825
0.000114674
8.83694e-05
0.100452
0.00489787
-0.100377
0.100496
0.00435204
0.100516
0.00386699
0.100506
0.00342963
0.100467
0.00302811
0.100402
0.00265919
0.100314
0.00232212
0.100206
0.00201545
0.100078
0.00173745
0.0999341
0.00148676
0.099775
0.00126245
0.0996029
0.00106359
0.0994197
0.000889623
0.0992274
0.000739441
0.0990277
0.000613109
0.0988228
0.000508373
0.0986139
0.000427457
0.0984031
0.000363941
0.098191
0.000326743
0.000299976
0.0998427
0.00469137
-0.0996362
0.100004
0.00419054
0.100131
0.00374044
0.100224
0.00333656
0.100285
0.0029672
0.100316
0.00262747
0.100322
0.00231645
0.100304
0.00203332
0.100265
0.00177673
0.100206
0.00154537
0.100131
0.0013383
0.100039
0.00115462
0.0999353
0.000993839
0.0998198
0.000854868
0.0996951
0.000737863
0.0995628
0.000640613
0.0994249
0.000565438
0.0992825
0.000506267
0.0991377
0.000471588
0.000447225
0.0990246
0.00439586
-0.0987291
0.0992694
0.00394573
0.0994738
0.00353602
0.0996423
0.00316807
0.0997774
0.00283214
0.0998819
0.00252297
0.0999588
0.00223952
0.100011
0.0019813
0.10004
0.00174731
0.100049
0.00153638
0.10004
0.00134762
0.100014
0.00118019
0.0999746
0.00103361
0.0999225
0.000906909
0.0998601
0.000800233
0.0997892
0.000711596
0.0997115
0.000643086
0.0996283
0.000589506
0.0995419
0.000557994
0.000537381
0.0981499
0.00404234
-0.0977964
0.0984519
0.00364369
0.0987113
0.00327672
0.0989334
0.00294591
0.0991218
0.0026438
0.0992791
0.0023656
0.0994084
0.00211025
0.0995122
0.00187746
0.0995931
0.00166649
0.0996531
0.00147636
0.0996944
0.00130625
0.0997192
0.00115541
0.0997294
0.0010234
0.099727
0.000909343
0.0997139
0.000813358
0.0996917
0.000733767
0.0996625
0.000672264
0.0996273
0.000624721
0.0995887
0.000596602
0.000580008
0.0973014
0.00365089
-0.0969099
0.0976426
0.00330244
0.0979406
0.00297875
0.0982009
0.00268554
0.0984274
0.00241733
0.0986229
0.00217014
0.0987901
0.00194302
0.0989318
0.00173579
0.0990503
0.00154794
0.099148
0.00137866
0.099227
0.00122724
0.0992894
0.00109301
0.0993372
0.000975589
0.0993724
0.000874222
0.0993968
0.000788961
0.0994121
0.000718458
0.0994204
0.000663987
0.0994226
0.000622452
0.0994215
0.000597721
0.00058479
0.0965192
0.00323388
-0.0961022
0.0968879
0.00293371
0.0972138
0.00265292
0.097502
0.00239734
0.0977563
0.002163
0.0979797
0.00194677
0.0981748
0.0017479
0.0983443
0.00156629
0.0984906
0.00140159
0.0986162
0.00125314
0.098723
0.00112038
0.0988133
0.00100272
0.0988891
0.000899827
0.0989522
0.000811073
0.0990047
0.000736456
0.0990483
0.00067493
0.0990848
0.000627394
0.0991157
0.000591627
0.0991432
0.000570185
0.000560298
0.0958213
0.00279882
-0.0953863
0.09621
0.00254499
0.0965566
0.00230633
0.0968658
0.00208816
0.0971412
0.00188762
0.0973856
0.00170233
0.0976018
0.00153173
0.0977923
0.00137581
0.0979595
0.00123432
0.0981059
0.00110676
0.0982336
0.000992662
0.0983448
0.000891564
0.0984415
0.000803163
0.0985256
0.000726963
0.0985991
0.00066292
0.0986638
0.000610243
0.0987216
0.000569538
0.098774
0.000539262
0.0988232
0.000520999
0.000513513
0.0952154
0.00235045
-0.094767
0.0956191
0.00214124
0.0959816
0.00194383
0.0963071
0.00176274
0.0965988
0.00159589
0.0968596
0.00144152
0.0970921
0.00129925
0.0972988
0.00116911
0.0974822
0.00105093
0.0976446
0.000944355
0.0977882
0.000849008
0.0979153
0.000764522
0.0980278
0.00069065
0.0981277
0.000627001
0.0982171
0.000573515
0.0982978
0.000529608
0.0983716
0.000495669
0.0984402
0.000470657
0.0985058
0.000455489
0.000449868
0.0947052
0.001892
-0.0942467
0.0951205
0.00172597
0.0954953
0.00156896
0.0958335
0.00142458
0.0961381
0.00129131
0.0964118
0.00116784
0.0966571
0.00105396
0.0968765
0.000949704
0.0970724
0.000854979
0.0972473
0.000769516
0.0974032
0.000693038
0.0975425
0.000625267
0.0976671
0.000566004
0.0977792
0.000514959
0.0978806
0.000472063
0.0979733
0.000436903
0.0980593
0.00040971
0.0981401
0.000389814
0.0982179
0.000377692
0.000373548
0.0942936
0.00142587
-0.0938274
0.0947177
0.00130188
0.095102
0.00118457
0.09545
0.00107657
0.0957646
0.000976748
0.0960483
0.000884185
0.0963035
0.000798743
0.0965327
0.000720486
0.0967383
0.000649344
0.0969227
0.000585133
0.0970881
0.000527658
0.0972366
0.000476719
0.0973705
0.000432169
0.0974916
0.000393804
0.0976021
0.000361557
0.0977039
0.00033516
0.0977989
0.000314725
0.0978888
0.000299867
0.0979757
0.000290759
0.000287845
0.0939834
0.000954046
-0.0935116
0.094414
0.000871295
0.0948053
0.000793222
0.0951605
0.000721374
0.0954824
0.000654913
0.0957733
0.00059324
0.0960358
0.000536288
0.0962721
0.000484104
0.0964848
0.000436648
0.0966762
0.000393801
0.0968484
0.000355438
0.0970037
0.000321432
0.0971442
0.000291685
0.0972719
0.000266073
0.0973889
0.000244535
0.0974971
0.000226933
0.0975986
0.000213271
0.097695
0.000203422
0.0977885
0.000197307
0.000195496
0.0937774
0.000478422
-0.0933018
0.0942122
0.000436489
0.094608
0.000397503
0.0949676
0.000361687
0.0952941
0.000328505
0.0955896
0.000297685
0.0958567
0.000269218
0.0960976
0.000243135
0.0963149
0.00021941
0.0965107
0.000197983
0.0966874
0.000178792
0.096847
0.000161781
0.0969918
0.000146893
0.0971238
0.000134085
0.097245
0.000123292
0.0973574
0.000114516
0.0974631
0.000107618
0.0975637
0.000102825
0.0976615
9.9534e-05
9.90493e-05
0.0936761
-0.0931977
0.0941126
0.0945101
0.0948718
0.0952003
0.095498
0.0957672
0.0960103
0.0962297
0.0964277
0.0966065
0.0967683
0.0969152
0.0970493
0.0971726
0.0972871
0.0973947
0.0974975
0.097597
0.0767284
0.0241232
-0.0749706
0.0786696
0.0312731
0.0807035
0.0384478
0.0826507
0.0455081
0.0842221
0.0521823
0.0849455
0.0581472
0.0842082
0.062819
0.0814396
0.0655906
0.0759396
0.0662117
0.0624072
0.0757202
0.0223673
-0.0739643
0.077744
0.0292494
0.0799865
0.0362052
0.0823403
0.0431543
0.0846209
0.0499017
0.0865282
0.0562399
0.0875554
0.0617918
0.0873771
0.0657689
0.0848428
0.068746
0.0664145
0.0746971
0.020662
-0.0729918
0.0767283
0.0272182
0.0790619
0.0338716
0.0816461
0.0405701
0.0843682
0.0471796
0.0870873
0.0535208
0.0893882
0.0594909
0.0910784
0.0640787
0.091074
0.0687504
0.0682869
0.0737381
0.0190345
-0.0721106
0.0757298
0.0252265
0.0780774
0.031524
0.0807679
0.0378795
0.0837259
0.0442217
0.0869039
0.0503427
0.0899778
0.0564171
0.0927973
0.0612592
0.0947809
0.0667668
0.0680624
0.0728722
0.0174903
-0.0713281
0.0748017
0.0232971
0.0771152
0.0292105
0.0798213
0.0351734
0.0828654
0.0411776
0.0862375
0.0469706
0.0897449
0.0529097
0.0932198
0.0577843
0.0965584
0.0634282
0.0660911
0.0720966
0.0160235
-0.0706297
0.0739573
0.0214364
0.0762138
0.026954
0.0788821
0.032505
0.0819299
0.0381299
0.0853522
0.0435483
0.089088
0.0491739
0.0929201
0.0539521
0.097019
0.0593293
0.0628561
0.0713985
0.0146243
-0.0699994
0.0731931
0.0196419
0.0753877
0.0247594
0.0779969
0.0298958
0.0810123
0.0351145
0.0844164
0.0401442
0.0882358
0.0453545
0.0922322
0.0499557
0.0966675
0.0548941
0.0588159
0.0707663
0.0132837
-0.0694257
0.0725009
0.0179073
0.074637
0.0226232
0.0771837
0.0273492
0.0801504
0.0321478
0.0835047
0.0367899
0.0873122
0.041547
0.0913634
0.0459045
0.0958939
0.0503636
0.0543325
0.0701913
0.0119942
-0.0689018
0.0718728
0.0162258
0.0739559
0.0205401
0.0764435
0.0248616
0.079354
0.0292373
0.082649
0.0334949
0.0863981
0.0377979
0.0904476
0.0418549
0.0949573
0.0458539
0.0496536
0.0696698
0.0107507
-0.0684262
0.0713035
0.0145921
0.0733379
0.0185057
0.0757718
0.0224277
0.0786251
0.026384
0.081863
0.0302569
0.0855399
0.034121
0.0895574
0.0378374
0.0940004
0.041411
0.0449249
0.0691988
0.00954857
-0.0679967
0.0707893
0.0130016
0.0727788
0.0165162
0.0751647
0.0200418
0.0779637
0.023585
0.0811496
0.027071
0.0847557
0.030515
0.0887256
0.0338675
0.0930912
0.0370453
0.0402197
0.0687766
0.0083839
-0.067612
0.0703282
0.0114501
0.0722764
0.0145679
0.0746193
0.0176989
0.0773687
0.0208356
0.0805069
0.0239329
0.0840492
0.0269727
0.0879659
0.0299508
0.0922584
0.0327528
0.0355682
0.0684022
0.00725298
-0.0672713
0.0699186
0.00993358
0.0718294
0.0126572
0.0741337
0.0153946
0.0768385
0.0181308
0.0799328
0.0208386
0.0834198
0.0234857
0.0872842
0.0260864
0.091512
0.028525
0.030978
0.0680748
0.00615235
-0.0669741
0.0695599
0.0084485
0.071437
0.01078
0.0737066
0.0131251
0.0763721
0.0154653
0.0794266
0.017784
0.0828663
0.0200459
0.0866826
0.0222701
0.0908547
0.0243529
0.0264464
0.0677939
0.00507865
-0.0667202
0.069251
0.00699132
0.0710984
0.00893269
0.0733373
0.0108862
0.0759687
0.0128338
0.0789881
0.0147647
0.0823879
0.0166461
0.086162
0.0184961
0.0902869
0.020228
0.0219663
0.0675587
0.00402868
-0.0665088
0.0689915
0.0055586
0.070813
0.00711119
0.0730252
0.00867395
0.0756279
0.0102312
0.0786172
0.0117753
0.0819841
0.0132792
0.0857228
0.0147575
0.0898093
0.0161415
0.0175289
0.0673687
0.00299926
-0.0663393
0.0687804
0.00414689
0.0705801
0.0053115
0.07277
0.006484
0.0753492
0.00765208
0.0783141
0.00881034
0.0816551
0.00993824
0.0853659
0.0110466
0.0894227
0.0120846
0.0131242
0.067223
0.00198717
-0.0662109
0.0686173
0.00275259
0.0703993
0.00352943
0.0725717
0.00431167
0.0751328
0.00509093
0.0780795
0.00586367
0.0814016
0.00661615
0.0850927
0.00735549
0.0891291
0.00804822
0.0087417
0.0671218
0.000988825
-0.0661234
0.0685026
0.00137177
0.0702715
0.0017605
0.0724312
0.00215202
0.07498
0.00254207
0.0779148
0.00292892
0.0812253
0.00330562
0.084905
0.00367582
0.0889305
0.00402274
0.00437037
0.0670678
-0.066079
0.0684396
0.0702001
0.0723521
0.0748942
0.0778231
0.0811287
0.0848046
0.0888273
0.0307948
0.0561794
-0.0524592
-0.034515
0.0267449
0.0573187
-0.0532688
0.022602
0.0586436
-0.0545007
0.0183876
0.0601745
-0.0559601
0.0141247
0.0618129
-0.05755
0.00990622
0.0632577
-0.0590392
0.00595368
0.0635784
-0.0596259
0.00266605
0.0605219
-0.0572343
0.000559875
0.0497601
-0.0476539
0.0245115
-0.0239516
0.026278
0.0598024
-0.0299009
0.0225859
0.0610108
0.018817
0.0624125
0.014996
0.0639955
0.0111637
0.0656452
0.00744011
0.0669813
0.00408127
0.0669373
0.00149734
0.0631058
0.000113097
0.0511443
0.0246246
0.0216285
0.0631087
-0.0249349
0.0182529
0.0643864
0.0148318
0.0658336
0.0113965
0.0674307
0.00800705
0.0690347
0.00481296
0.0701754
0.00210664
0.0696436
0.000249236
0.0649632
-0.000340068
0.0517336
0.0242845
0.0166745
0.0660941
-0.0196599
0.0136452
0.0674158
0.010597
0.0688818
0.00757433
0.0704534
0.0046635
0.0719455
0.00204332
0.0727955
1.70863e-05
0.0716698
-0.000948132
0.0659284
-0.000764446
0.0515499
0.0235201
0.0114103
0.0687399
-0.0140562
0.00874875
0.0700774
0.00610261
0.071528
0.00353138
0.0730246
0.0011517
0.0743252
-0.000812983
0.0747602
-0.00201699
0.0728738
-0.00214634
0.0660578
-0.00116475
0.0505683
0.0223553
0.00584492
0.0710157
-0.00812069
0.0035717
0.0723506
0.00136053
0.0737391
-0.000716118
0.0751012
-0.00250853
0.0761176
-0.00375661
0.0760083
-0.00411499
0.0732322
-0.00330991
0.0652527
-0.00152586
0.0487843
0.0208295
-3.52122e-05
0.0729447
-0.00189379
-0.00187302
0.0741884
-0.00360902
0.0754751
-0.005141
0.0766332
-0.00627832
0.0772549
-0.00672999
0.07646
-0.00615877
0.072661
-0.00439146
0.0634854
-0.00183204
0.0462249
0.0189974
-0.00616723
0.0744002
0.00471174
-0.00755117
0.0755724
-0.00877181
0.0766958
-0.00969431
0.0775557
-0.010093
0.0776536
-0.00965704
0.0760241
-0.00808661
0.0710906
-0.00534438
0.0607432
-0.00206821
0.0429487
0.0169292
-0.0125665
0.0754049
0.0115619
-0.0134386
0.0764444
-0.0140758
0.077333
-0.0143047
0.0777846
-0.0138653
0.0772142
-0.0124464
0.0746051
-0.00982068
0.0684648
-0.00612214
0.0570446
-0.00222311
0.0390497
0.0147061
-0.019145
0.0186353
-0.0194564
-0.0194332
-0.0188664
-0.0174765
-0.0149828
-0.0112724
-0.00668093
-0.00229039
0.0540076
0.00576825
-0.0597758
0.048108
0.0058996
0.0420578
0.00605024
0.0358361
0.00622169
0.0294166
0.00641951
0.0227791
0.00663742
0.0159596
0.00681956
0.00919441
0.00676517
0.00324703
0.00594739
0.00324703
0.0535442
0.0114921
-0.0592681
0.0476875
0.0117563
0.0416797
0.012058
0.035501
0.0124005
0.0291256
0.0127949
0.0225348
0.0132282
0.0157661
0.0135883
0.0090635
0.0134678
0.00320276
0.0118081
0.00644978
0.0526283
0.0171322
-0.0582683
0.0468542
0.0175304
0.0409293
0.0179829
0.0348341
0.0184956
0.0285449
0.0190841
0.0220464
0.0197267
0.0153836
0.0202511
0.00880855
0.0200428
0.00308862
0.0175281
0.0095384
0.0512719
0.0226498
-0.0567895
0.0456183
0.023184
0.0398141
0.0237871
0.0338417
0.024468
0.0276796
0.0252461
0.0213182
0.0260882
0.0148127
0.0267566
0.00842775
0.0264278
0.00292425
0.0230316
0.0124627
0.049495
0.0280115
-0.0548566
0.0439951
0.0286838
0.0383459
0.0294363
0.0325321
0.0302818
0.0265358
0.0312424
0.0203546
0.0322694
0.0140577
0.0330535
0.0079256
0.0325599
0.00270956
0.0282476
0.0151722
0.0473227
0.0331901
-0.0525013
0.0420036
0.0340029
0.0365381
0.0349018
0.0309148
0.0359051
0.0251202
0.037037
0.0191608
0.0382288
0.0131229
0.0390913
0.00730611
0.0383767
0.00244677
0.0331069
0.017619
0.0447817
0.0381687
-0.0497603
0.039661
0.0391235
0.0344024
0.0401604
0.0289985
0.0413091
0.0234392
0.0425963
0.0177418
0.0439262
0.0120135
0.0448197
0.00657422
0.0438159
0.00213924
0.0375419
0.0197582
0.0419091
0.0429479
-0.0466883
0.0369865
0.0440462
0.0319516
0.0451953
0.0267925
0.0464681
0.0214995
0.0478894
0.0161034
0.0493222
0.0107352
0.0501879
0.00573606
0.048815
0.00179119
0.0414868
0.0215494
0.0386633
0.047608
-0.0433234
0.033933
0.0487765
0.0291594
0.0499688
0.0242816
0.0513459
0.0192932
0.0528779
0.0142443
0.054371
0.00929197
0.0551403
0.00479811
0.0533089
0.00140749
0.0448774
0.0229569
0.0351608
-0.0400119
0.0306685
0.0261367
0.0215224
0.0168503
0.0121822
0.00769655
0.0037712
0.000994706
0.0710688
-0.00035811
0.0713682
-0.000299376
0.0716079
-0.000239744
0.0717859
-0.000177954
0.0718989
-0.000113024
0.0719426
-4.37281e-05
0.0719121
3.05452e-05
0.0718028
0.000109248
0.0716072
0.000195676
0.0713166
0.000290613
0.070921
0.000395542
0.0704087
0.000512272
0.0697658
0.000642922
0.0689758
0.000789988
0.0680194
0.000956428
0.0668736
0.00114576
0.0655115
0.00136219
0.0639007
0.00161075
0.0620034
0.00189735
0.00222751
0.0710444
-0.000691769
0.0713191
-0.000574076
0.0715338
-0.000454455
0.0716864
-0.00033054
0.0717737
-0.000200323
0.071791
-6.10875e-05
0.0717352
8.63189e-05
0.0716001
0.000244366
0.0713785
0.000417332
0.0710619
0.000607223
0.0706403
0.000817056
0.0701022
0.00105044
0.0694335
0.00131162
0.0686179
0.00160559
0.0676361
0.00193825
0.0664652
0.00231665
0.0650781
0.00274921
0.0634428
0.00324605
0.0615211
0.00381906
0.00448054
0.0709958
-0.000976887
0.0712212
-0.000799425
0.0713859
-0.000619184
0.0714881
-0.000432763
0.071525
-0.000237207
0.0714897
-2.57472e-05
0.0713834
0.000192542
0.0711969
0.00043088
0.0709237
0.000690557
0.0705555
0.000975415
0.0700825
0.00129009
0.0694929
0.00163999
0.0687731
0.00203145
0.0679068
0.00247194
0.0668747
0.00297033
0.0656542
0.00353715
0.0642184
0.004185
0.0625354
0.00492905
0.0605675
0.00578696
0.00677968
0.0709234
-0.00118955
0.0710752
-0.000951306
0.0711656
-0.000709503
0.0711924
-0.000459563
0.0711523
-0.000197126
0.0710443
8.22105e-05
0.0708614
0.000375492
0.0705984
0.000693876
0.0702486
0.00104036
0.0698038
0.0014202
0.0692543
0.00183959
0.0685886
0.00230572
0.067793
0.00282704
0.0668514
0.00341347
0.065745
0.00407677
0.0644512
0.00483092
0.0629436
0.00569262
0.0611906
0.00668204
0.0591552
0.00782238
0.00914534
0.0708276
-0.00130642
0.0708826
-0.00100632
0.0708751
-0.000702057
0.0708037
-0.000388094
0.0706634
-5.68102e-05
0.0704567
0.000288834
0.0701737
0.000658563
0.0698104
0.00105719
0.0693601
0.00149059
0.0688149
0.00196541
0.0681651
0.00248936
0.0673995
0.0030714
0.0665045
0.00372202
0.0654644
0.00445353
0.0642607
0.00528052
0.0628713
0.00622032
0.0612703
0.00729362
0.0594269
0.00852545
0.057305
0.00994423
0.0115937
0.0707092
-0.00130489
0.0706448
-0.000941911
0.0705168
-0.000574056
0.0703231
-0.000194475
0.0700641
0.000202236
0.0697337
0.00061917
0.069328
0.00106431
0.0688417
0.00154355
0.0682682
0.00206405
0.0675997
0.00263387
0.0668269
0.0032622
0.0659386
0.00395971
0.0649218
0.00473884
0.0637611
0.0056142
0.0624386
0.00660305
0.060933
0.00772593
0.0592193
0.00900731
0.0572678
0.0104769
0.0550439
0.0121681
0.0141364
0.070569
-0.00116317
0.0703638
-0.00073669
0.0700942
-0.000304494
0.0697587
0.000141016
0.0693565
0.000604436
0.0688824
0.00109329
0.0683327
0.00161405
0.067702
0.00217421
0.066984
0.00278207
0.0661709
0.00344697
0.0652535
0.00417953
0.0642212
0.00499202
0.0630614
0.00589869
0.0617593
0.00691622
0.0602981
0.00806425
0.0586579
0.00936621
0.0568152
0.01085
0.0547421
0.0125501
0.0524055
0.0145047
0.0167816
0.070408
-0.000860486
0.0700418
-0.000370434
0.0696105
0.000126749
0.0691137
0.000637844
0.068548
0.00117012
0.0679104
0.00173086
0.0671967
0.00232775
0.0664017
0.00296926
0.065519
0.00366477
0.0645411
0.0044248
0.0634593
0.00526131
0.0622634
0.006188
0.0609414
0.00722068
0.0594798
0.00837783
0.057863
0.00968106
0.0560729
0.0111562
0.0540892
0.0128337
0.0518866
0.0147527
0.0494362
0.0169551
0.0195295
0.0702277
-0.000377464
0.0696818
0.000175488
0.0690711
0.000737386
0.0683935
0.0013155
0.0676465
0.00191713
0.0668268
0.00255049
0.0659303
0.00322429
0.0649516
0.00394793
0.0638847
0.00473174
0.0627222
0.00558729
0.0614559
0.00652755
0.0600766
0.00756728
0.058574
0.0087233
0.0569367
0.0100152
0.0551523
0.0114655
0.0532066
0.0131019
0.051084
0.0149562
0.0487591
0.0170777
0.0462114
0.0195028
0.0224175
0.0700307
0.000302529
0.0692905
0.00091565
0.0684848
0.00154314
0.0676117
0.00218855
0.066669
0.00285983
0.0656532
0.00356631
0.0645598
0.00431768
0.0633835
0.0051243
0.0621178
0.00599744
0.0607555
0.00694959
0.0592885
0.00799454
0.0577082
0.00914759
0.0560057
0.0104258
0.0541728
0.0118481