/*--------------------------------*- C++ -*----------------------------------*\
| =========                 |                                                 |
| \\      /  F ield         | OpenFOAM: The Open Source CFD Toolbox           |
|  \\    /   O peration     | Version:  4.1                                   |
|   \\  /    A nd           | Web:      www.OpenFOAM.org                      |
|    \\/     M anipulation  |                                                 |
\*---------------------------------------------------------------------------*/
FoamFile
{
    version     2.0;
    format      ascii;
    class       surfaceScalarField;
    location    "10";
    object      phi;
}
// * * * * * * * * * * * * * * * * * * * * * * * * * * * * * * * * * * * * * //

dimensions      [0 3 -1 0 0 0 0];

internalField   nonuniform List<scalar> 
7430
(
-0.000341929
0.00239511
-0.00205319
-0.000102794
0.0040853
-0.00432444
0.00132654
0.00317859
-0.00460793
0.00467272
-0.00022969
-0.00311649
0.0106188
-0.00595929
1.31656e-05
0.0195346
-0.0134745
0.00455883
0.0306992
-0.0214875
0.0103229
0.0440295
-0.0292565
0.0159262
0.0583968
-0.0373596
0.0229923
-0.0417178
0.0286686
0.0714459
-0.000439211
0.00283432
-1.29191e-06
0.00364738
0.00248285
0.000694449
0.00821626
-0.0059631
0.0175889
-0.0153319
0.0297583
-0.0256439
0.0433371
-0.0350663
0.0574592
-0.0433785
0.0693514
-0.0492518
-0.0534265
0.0810601
-0.000287571
0.0031219
0.00091577
0.00244404
0.0054894
-0.00387918
0.0144602
-0.0149339
0.0268088
-0.0276806
0.0403958
-0.0392309
0.0535691
-0.0482397
0.0647164
-0.0545259
0.0735864
-0.0581218
-0.060733
0.0808929
4.38139e-05
0.00307808
0.00258964
-0.000101783
0.0100399
-0.0113294
0.0218677
-0.0267617
0.0351896
-0.0410025
0.0475218
-0.0515631
0.0575205
-0.0582384
0.0648942
-0.0618995
0.0703799
-0.0636075
-0.0642526
0.0738995
0.000443978
0.0026341
0.00500041
-0.00465821
0.0153807
-0.0217097
0.0282563
-0.0396373
0.0400983
-0.0528445
0.0493027
-0.0607675
0.0558316
-0.0647673
0.0603945
-0.0664624
0.0636332
-0.0668462
-0.0669779
0.0663585
0.00100302
0.00163109
0.00811282
-0.011768
0.0201295
-0.0337264
0.0318397
-0.0513475
0.0408417
-0.0618465
0.047023
-0.0669488
0.0511907
-0.068935
0.0540995
-0.0693712
0.0564885
-0.0692353
-0.0689787
0.0584893
0.00195405
-0.000322959
0.0113501
-0.021164
0.0229906
-0.045367
0.0323302
-0.0606871
0.0386396
-0.0681559
0.0426718
-0.070981
0.0453193
-0.0715825
0.0472794
-0.0713312
0.0488813
-0.0708372
-0.0702905
0.0501931
0.00328718
-0.00361014
0.0138088
-0.0316856
0.0237208
-0.055279
0.0305985
-0.0675648
0.034797
-0.0723544
0.0373077
-0.0734917
0.0389564
-0.0732312
0.0401906
-0.0725654
0.0412212
-0.0718678
-0.0712345
0.0421653
0.00471317
-0.00832331
0.0148372
-0.0418096
0.02273
-0.0631718
0.0274964
-0.0723312
0.0300921
-0.0749501
0.0315477
-0.0749474
0.0324773
-0.0741608
0.0331678
-0.0732559
0.0337224
-0.0724224
-0.0716524
0.0341404
0.00583892
-0.0141622
0.0146043
-0.050575
0.0205312
-0.0690987
0.0236104
-0.0754104
0.0250357
-0.0763754
0.0257078
-0.0756194
0.0260635
-0.0745165
0.0262583
-0.0734508
0.0263235
-0.0724876
0.0263189
-0.0716478
-0.00196839
0.00196839
-0.00526277
0.00329438
-0.00900189
0.00373912
-0.0129575
0.00395557
-0.0170906
0.00413318
-0.0213916
0.004301
-0.0258484
0.00445679
-0.0304493
0.0046009
-0.035188
0.00473867
0.00489562
-0.0400836
-0.00164822
0.00361662
-0.0045204
0.00616656
-0.00782871
0.00704742
-0.0113066
0.00743348
-0.014885
0.00771158
-0.018542
0.00795799
-0.0222604
0.00817519
-0.0260226
0.0083631
-0.0298183
0.00853435
0.00873118
-0.0336538
-0.00107543
0.00469204
-0.00318681
0.00827794
-0.00570565
0.00956626
-0.0083283
0.0100561
-0.0109333
0.0103165
-0.013474
0.0104987
-0.0159263
0.0106275
-0.018269
0.0107058
-0.0204756
0.010741
0.0107898
-0.0225343
-0.000389811
0.00508185
-0.00152127
0.0094094
-0.00301503
0.01106
-0.00455289
0.011594
-0.00595368
0.0117173
-0.00713621
0.0116812
-0.00806595
0.0115573
-0.0087311
0.011371
-0.00910865
0.0111185
0.010801
-0.00911979
0.000253264
0.00482859
0.000151535
0.00951113
-0.000226595
0.0114382
-0.00059382
0.0119612
-0.000734359
0.0118579
-0.000530035
0.0114769
7.48319e-05
0.0109524
0.00109825
0.0103476
0.00251201
0.00970474
0.00894417
0.0043688
0.000702511
0.00412608
0.00148157
0.00873207
0.00215685
0.0107629
0.00290385
0.0112142
0.00393435
0.0108274
0.00538932
0.0100219
0.00734014
0.0090016
0.00984406
0.00784364
0.012783
0.00676577
0.00526259
0.0164646
0.000874424
0.00325165
0.00220057
0.00740592
0.00365185
0.0093116
0.00528207
0.009584
0.00724145
0.00886798
0.00965821
0.00760517
0.012608
0.00605179
0.0162214
0.00423022
0.0201844
0.00280284
3.87338e-05
0.0254082
0.000761957
0.0024897
0.0021836
0.00598429
0.00395894
0.00753626
0.00605055
0.00749239
0.00853845
0.00638008
0.0115394
0.00460419
0.0152101
0.00238114
0.0197049
-0.000264557
0.0246741
-0.00216643
-0.00732563
0.0320385
0.000429665
0.00206003
0.00152592
0.00488803
0.0031503
0.00591188
0.00527721
0.00536548
0.00803451
0.00362277
0.0116729
0.000965796
0.0166116
-0.00255755
0.0228287
-0.00648171
0.0308335
-0.0101712
-0.0173632
0.0408711
6.84779e-06
0.000570442
0.0018744
0.00412338
0.00775932
0.0132839
0.0210493
0.0304937
0.0433148
0.0546203
-0.0448742
0.00479053
-0.0488959
0.00402172
-0.0525286
0.00363272
-0.0555898
0.00306124
-0.0582344
0.00264455
-0.0604321
0.00219771
-0.0622636
0.00183149
-0.06374
0.00147638
-0.0649206
0.00118065
-0.0658306
0.000909938
-0.0664853
0.000654684
-0.0668771
0.000391814
-0.0669769
9.98289e-05
-0.066817
-0.000159882
-0.0663914
-0.000425599
-0.0656553
-0.000736104
-0.0645634
-0.00109186
-0.0630624
-0.00150103
-0.0610944
-0.00196796
-0.0586029
-0.0024915
-0.0555353
-0.00306766
-0.0518572
-0.00367809
-0.0475619
-0.00429524
-0.0426789
-0.00488302
-0.0372658
-0.00541316
-0.0314444
-0.00582135
-0.0253307
-0.00611368
-0.0190566
-0.00627417
-0.0127809
-0.0062757
-0.00660096
-0.00617991
-0.000624945
-0.00597601
0.00508039
-0.00570534
0.0104623
-0.00538187
0.0154929
-0.00503068
0.0201604
-0.00466742
0.0244653
-0.00430494
0.0284165
-0.0039512
0.0320275
-0.00361099
0.0353166
-0.00328915
0.0383051
-0.00298848
0.0410155
-0.00271035
0.0434707
-0.00245521
0.0456934
-0.00222276
0.0477055
-0.00201208
0.0495274
-0.00182186
0.051178
-0.00165059
0.0526746
-0.00149666
0.0540331
-0.00135848
0.0552676
-0.00123451
0.0563909
-0.00112325
0.0574143
-0.0010234
0.0583479
-0.000933653
0.0592009
-0.000852938
0.059981
-0.000780166
0.0606955
-0.0007145
0.0613506
-0.000655025
0.0619517
-0.000601124
0.0625037
-0.00055202
0.063011
-0.000507284
0.0634772
-0.000466251
0.0639059
-0.000428639
0.0642998
-0.000393894
0.0646616
-0.000361817
0.0649936
-0.000332001
0.0652978
-0.000304235
0.0655762
-0.000278326
0.0658301
-0.000253943
0.0660613
-0.000231163
0.0662707
-0.000209479
0.0664599
-0.00018916
0.0666296
-0.000169707
0.0667807
-0.000151132
0.0669145
-0.000133716
0.0670304
-0.000115957
0.0671312
-0.0001008
0.0672138
-8.26059e-05
0.0672844
-7.05897e-05
0.0673349
-5.05015e-05
0.0673782
-4.32993e-05
-1.9464e-05
-0.0380102
0.00914692
-0.0416372
0.00764873
-0.0448279
0.00682335
-0.0475315
0.00576484
-0.0498192
0.00493225
-0.051712
0.00409057
-0.0532522
0.00337166
-0.0544707
0.0026949
-0.0553969
0.00210685
-0.0560747
0.00158768
-0.0565269
0.00110686
-0.0567462
0.000611118
-0.0566944
4.80899e-05
-0.0564459
-0.00040845
-0.0559453
-0.000926106
-0.0551655
-0.00151594
-0.0540672
-0.0021902
-0.052601
-0.00296722
-0.0507077
-0.00386122
-0.0483338
-0.00486539
-0.0454234
-0.00597807
-0.0419373
-0.00716425
-0.0378612
-0.00837135
-0.033222
-0.00952222
-0.0280791
-0.010556
-0.022549
-0.0113514
-0.0167459
-0.0119168
-0.0107847
-0.0122354
-0.00481532
-0.0122451
0.000996527
-0.0119918
0.00659887
-0.0115784
0.0119338
-0.0110402
0.0169549
-0.010403
0.0216332
-0.00970901
0.0259581
-0.00899226
0.0299315
-0.00827842
0.0335652
-0.00758488
0.0368753
-0.00692106
0.0398796
-0.00629352
0.0425992
-0.00570801
0.045056
-0.00516721
0.0472727
-0.00467188
0.0492713
-0.00422134
0.0510729
-0.00381367
0.0526972
-0.00344622
0.0541626
-0.00311594
0.0554856
-0.00281965
0.0566812
-0.00255415
0.0577631
-0.00231638
0.0587433
-0.00210342
0.0596325
-0.00191263
0.0604404
-0.00174149
0.0611753
-0.00158786
0.0618447
-0.00144961
0.0624553
-0.0013251
0.0630128
-0.00121254
0.0635224
-0.00111071
0.0639885
-0.00101811
0.0644151
-0.000933885
0.0648056
-0.000856758
0.0651631
-0.000786162
0.0654903
-0.000721045
0.0657894
-0.000660982
0.0660627
-0.000605236
0.0663118
-0.000553331
0.0665384
-0.000504981
0.0667439
-0.000459438
0.0669297
-0.000416984
0.0670968
-0.000376493
0.0672463
-0.000338659
0.0673789
-0.000302337
0.0674955
-0.000267726
0.067597
-0.000235203
0.067683
-0.000202
0.0677559
-0.000173716
0.0678128
-0.000139482
0.0678593
-0.000117088
0.0678878
-7.89859e-05
0.0679102
-6.56904e-05
-2.04341e-05
-0.0260616
0.0126743
-0.0290687
0.0106558
-0.031611
0.00936563
-0.0338106
0.00796447
-0.0356236
0.00674528
-0.0371112
0.00557819
-0.0382794
0.0045398
-0.0391676
0.00358314
-0.0397925
0.00273177
-0.0401746
0.00196975
-0.0403681
0.00130034
-0.0403602
0.000603269
-0.0401816
-0.000130575
-0.0398057
-0.000784321
-0.0392266
-0.00150524
-0.0384247
-0.00231786
-0.0373643
-0.00325057
-0.0360013
-0.00433017
-0.0342782
-0.00558437
-0.0321467
-0.00699689
-0.0295477
-0.00857703
-0.0264354
-0.0102766
-0.0227785
-0.0120283
-0.018587
-0.0137138
-0.0139164
-0.0152266
-0.00884086
-0.016427
-0.00351396
-0.0172437
0.00181859
-0.0175679
0.00711051
-0.017537
0.0123235
-0.0172048
0.0173536
-0.0166084
0.0221246
-0.0158112
0.0265961
-0.0148745
0.0307449
-0.0138579
0.0345629
-0.0128103
0.0380532
-0.0117687
0.0412275
-0.0107592
0.0441037
-0.00979723
0.0467007
-0.00889055
0.0490377
-0.00804496
0.0511353
-0.00726486
0.0530147
-0.00655132
0.0546967
-0.00590328
0.0562009
-0.00531789
0.0575459
-0.00479122
0.0587487
-0.00431873
0.0598248
-0.00389575
0.0607882
-0.00351754
0.0616514
-0.00317964
0.0624257
-0.00287772
0.0631211
-0.00260795
0.0637462
-0.00236659
0.0643088
-0.00215053
0.0648159
-0.00195665
0.0652733
-0.00178254
0.0656864
-0.0016256
0.0660597
-0.00148404
0.0663973
-0.00135569
0.0667027
-0.00123928
0.0669789
-0.001133
0.0672287
-0.00103593
0.0674543
-0.000946692
0.0676578
-0.000864477
0.0678411
-0.000788461
0.0680054
-0.000717643
0.0681524
-0.000652003
0.0682829
-0.000589985
0.0683985
-0.000532573
0.0684995
-0.000477486
0.0685874
-0.000426487
0.0686621
-0.000377103
0.0687249
-0.0003305
0.068776
-0.00028628
0.0688154
-0.000241445
0.0688447
-0.000202975
0.0688616
-0.00015638
0.0688704
-0.000125883
0.0688649
-7.34729e-05
0.0688545
-5.53331e-05
7.08859e-06
-0.0115208
0.0150753
-0.0138027
0.0129377
-0.0157316
0.0112945
-0.0174626
0.00969548
-0.0188967
0.0081793
-0.0200729
0.00675444
-0.020984
0.00545091
-0.0216529
0.00425201
-0.0220922
0.00317106
-0.0223175
0.00219507
-0.0223492
0.00133205
-0.0222171
0.000471162
-0.0219491
-0.000398586
-0.0215145
-0.00121893
-0.020915
-0.00210472
-0.0201368
-0.00309603
-0.0191496
-0.00423783
-0.017915
-0.00556475
-0.0163863
-0.00711308
-0.0144949
-0.00888829
-0.0122085
-0.0108634
-0.00947683
-0.0130083
-0.0062687
-0.0152364
-0.00255131
-0.0174312
0.00145804
-0.019236
0.0056786
-0.0206475
0.0101171
-0.0216823
0.0147115
-0.0221623
0.0193342
-0.0221597
0.0238598
-0.0217304
0.0282046
-0.0209532
0.0323137
-0.0199203
0.0361552
-0.018716
0.0397118
-0.0174145
0.0429777
-0.0160761
0.0459559
-0.0147469
0.0486559
-0.0134592
0.0510929
-0.0122342
0.0532852
-0.0110828
0.0552498
-0.0100095
0.057004
-0.00901901
0.058566
-0.00811331
0.0599539
-0.00729119
0.0611851
-0.0065491
0.0622759
-0.00588208
0.0632416
-0.00528439
0.0640959
-0.00475005
0.0648514
-0.00427302
0.0655193
-0.00384758
0.0661098
-0.0034682
0.0666318
-0.00312996
0.0670933
-0.0028281
0.0675014
-0.00255859
0.0678622
-0.00231744
0.0681812
-0.00210153
0.0684631
-0.00190755
0.0687122
-0.00173313
0.0689321
-0.00157557
0.0691259
-0.00143311
0.0692965
-0.00130359
0.0694462
-0.00118561
0.0695772
-0.00107766
0.069691
-0.00097834
0.0697896
-0.000887048
0.0698739
-0.000801926
0.0699455
-0.000723637
0.0700049
-0.000649359
0.0700536
-0.000581323
0.0700917
-0.000515516
0.0701206
-0.000455427
0.0701401
-0.0003966
0.0701515
-0.000341862
0.0701546
-0.000289357
0.0701496
-0.000236539
0.0701377
-0.000190994
0.0701168
-0.000135533
0.0700904
-9.94937e-05
0.0700533
-3.63683e-05
0.0700128
-1.47935e-05
6.07615e-05
0.00324151
0.0162026
0.00185358
0.0143256
0.000480811
0.0126673
-0.000804362
0.0109806
-0.00196371
0.00933865
-0.00297707
0.00776781
-0.00379932
0.00627316
-0.00442194
0.00487463
-0.00484519
0.00359432
-0.00507854
0.00242842
-0.00511509
0.00136861
-0.00500219
0.000358254
-0.00474761
-0.00065316
-0.00432892
-0.00163762
-0.00375092
-0.00268272
-0.00300412
-0.00384283
-0.00206503
-0.00517691
-0.000880873
-0.00674891
0.000510144
-0.00850409
0.00212269
-0.0105008
0.00406214
-0.0128028
0.00636255
-0.0153087
0.00902809
-0.0179019
0.0120177
-0.0204208
0.0153553
-0.0225736
0.0189925
-0.0242847
0.0227744
-0.0254642
0.0266373
-0.0260251
0.0304754
-0.0259978
0.0342075
-0.0254625
0.0377788
-0.0245245
0.0411533
-0.0232948
0.0443095
-0.0218723
0.0472357
-0.0203406
0.0499272
-0.0187677
0.0523856
-0.0172052
0.0546169
-0.0156906
0.0566316
-0.0142489
0.0584434
-0.0128947
0.0600674
-0.0116335
0.0615161
-0.0104678
0.0628038
-0.00940099
0.0639448
-0.00843218
0.0649532
-0.00755743
0.0658422
-0.00677111
0.0666244
-0.00606663
0.0673114
-0.00543703
0.0679136
-0.00487523
0.0684406
-0.00437454
0.0689009
-0.00392849
0.0693022
-0.00353128
0.0696514
-0.00317731
0.0699546
-0.00286181
0.0702173
-0.0025801
0.0704441
-0.0023284
0.0706395
-0.00210287
0.070807
-0.00190061
0.0709499
-0.0017185
0.071071
-0.00155427
0.071173
-0.00140558
0.0712579
-0.00127044
0.0713276
-0.00114744
0.0713837
-0.00103439
0.0714278
-0.000931197
0.0714608
-0.000834843
0.0714842
-0.00074706
0.0714982
-0.000663359
0.0715045
-0.000587677
0.0715028
-0.000513819
0.0714949
-0.000447473
0.0714801
-0.000381791
0.0714598
-0.000321637
0.071434
-0.000263494
0.0714027
-0.000205247
0.071367
-0.00015528
0.0713248
-9.34025e-05
0.0712795
-5.40987e-05
0.0712259
1.72237e-05
0.0711703
4.08095e-05
0.000126843
0.0166263
0.0160409
0.0162099
0.014742
0.0154922
0.013385
0.0146421
0.0118308
0.013741
0.0102398
0.0128564
0.0086524
0.0120528
0.00707673
0.0113696
0.00555785
0.0108296
0.00413427
0.010446
0.00281199
0.0102247
0.00158996
0.0101716
0.000411295
0.0102837
-0.000765176
0.0105634
-0.00191739
0.0110122
-0.00313153
0.0116341
-0.0044647
0.0124395
-0.00598232
0.0134373
-0.00774669
0.0146813
-0.00974811
0.0162208
-0.0120403
0.0180425
-0.0146246
0.0201515
-0.0174177
0.0225332
-0.0202836
0.0251403
-0.023028
0.0279753
-0.0254085
0.0309586
-0.0272681
0.0339992
-0.0285047
0.0370398
-0.0290657
0.0400245
-0.0289826
0.0429101
-0.0283481
0.0456693
-0.0272837
0.0482843
-0.0259097
0.0507426
-0.0243306
0.0530359
-0.0226339
0.0551589
-0.0208907
0.0571102
-0.0191565
0.0588915
-0.0174719
0.0605077
-0.0158652
0.0619671
-0.0143541
0.0632805
-0.0129468
0.0644575
-0.0116448
0.0655074
-0.0104509
0.0664405
-0.0093652
0.0672668
-0.00838382
0.0679966
-0.0075009
0.0686394
-0.00670939
0.0692041
-0.00600171
0.0696989
-0.00537006
0.0701314
-0.00480704
0.0705084
-0.00430547
0.070836
-0.00385891
0.0711198
-0.00346114
0.0713648
-0.00310682
0.0715755
-0.00279076
0.0717558
-0.00250868
0.0719092
-0.00225635
0.072039
-0.00203036
0.0721479
-0.0018274
0.0722383
-0.00164465
0.0723125
-0.00147978
0.0723721
-0.0013301
0.0724192
-0.00119454
0.0724548
-0.00106996
0.0724806
-0.000957025
0.0724971
-0.000851343
0.0725061
-0.000755992
0.0725073
-0.000664584
0.0725026
-0.000583
0.0724915
-0.000502717
0.0724757
-0.000431699
0.0724548
-0.000360812
0.0724299
-0.000296739
0.0724011
-0.000234742
0.0723685
-0.000172601
0.0723332
-0.000120028
0.072293
-5.3216e-05
0.0722514
-1.24882e-05
0.0722028
6.58494e-05
0.0721535
9.00859e-05
0.000185362
0.0269258
0.0145233
0.0275515
0.0141163
0.0277
0.0132365
0.027524
0.0120068
0.0270771
0.0106866
0.0264613
0.00926819
0.0257776
0.00776044
0.0250988
0.00623663
0.0244822
0.00475093
0.0239706
0.00332355
0.0236082
0.00195236
0.0233978
0.000621678
0.0233517
-0.000719075
0.0234943
-0.00205998
0.0238398
-0.00347701
0.0243945
-0.00501944
0.0251628
-0.00675058
0.0261468
-0.00873069
0.0273795
-0.0109808
0.0288626
-0.0135234
0.0305746
-0.0163366
0.0324853
-0.0193283
0.0345534
-0.0223517
0.0367247
-0.0251993
0.0389565
-0.0276403
0.0411991
-0.0295108
0.0434115
-0.0307171
0.0455768
-0.031231
0.0476841
-0.0310899
0.0497237
-0.0303876
0.0516901
-0.0292501
0.0535779
-0.0277975
0.0553787
-0.0261315
0.0570834
-0.0243386
0.0586837
-0.022491
0.0601733
-0.0206461
0.0615491
-0.0188477
0.0628108
-0.0171268
0.0639607
-0.015504
0.0650044
-0.0139905
0.0659495
-0.0125899
0.0668016
-0.011303
0.0675665
-0.0101301
0.0682503
-0.00906769
0.0688596
-0.00811016
0.0694008
-0.0072506
0.0698803
-0.00648124
0.0703042
-0.00579396
0.0706781
-0.00518094
0.0710072
-0.00463454
0.0712962
-0.00414787
0.0715493
-0.00371428
0.0717705
-0.00332802
0.0719633
-0.00298355
0.0721308
-0.00267618
0.0722759
-0.00240145
0.0724011
-0.00215554
0.0725087
-0.00193504
0.0726007
-0.00173661
0.072679
-0.00155807
0.0727449
-0.00139603
0.0728002
-0.00124989
0.0728458
-0.00111548
0.0728831
-0.00099439
0.0729125
-0.000880757
0.0729357
-0.000779134
0.0729523
-0.000681191
0.072964
-0.000594758
0.0729705
-0.000509142
0.0729731
-0.000434312
0.0729716
-0.000359344
0.0729669
-0.000292066
0.0729597
-0.000227548
0.0729491
-0.000161968
0.0729377
-0.000108629
0.0729216
-3.71121e-05
0.0729061
3.06159e-06
0.0728836
8.8318e-05
0.0728618
0.00011187
0.00021612
0.034187
0.0123748
0.0354983
0.0128049
0.0364002
0.0123346
0.0369075
0.0114996
0.0370411
0.0105531
0.0369006
0.00940865
0.0365717
0.00808936
0.0361271
0.00668124
0.0356469
0.00523109
0.035199
0.0037715
0.0347917
0.00235959
0.0345625
0.000850945
0.0345406
-0.00069717
0.0346944
-0.00221384
0.0350715
-0.00385411
0.0356807
-0.00562861
0.036521
-0.00759089
0.0375797
-0.00978942
0.0388406
-0.0122416
0.0402647
-0.0149475
0.0417963
-0.0178682
0.0433854
-0.0209175
0.0449781
-0.0239444
0.0465196
-0.0267408
0.047982
-0.0291026
0.0493635
-0.0308923
0.050678
-0.0320316
0.0519514
-0.0325043
0.0532077
-0.0323462
0.0544606
-0.0316405
0.0557144
-0.030504
0.0569644
-0.0290474
0.0581986
-0.0273657
0.0594025
-0.0255425
0.0605625
-0.023651
0.0616673
-0.0217509
0.0627089
-0.0198892
0.0636822
-0.0181001
0.0645851
-0.0164069
0.065418
-0.0148234
0.0661839
-0.0133558
0.0668866
-0.0120057
0.0675293
-0.0107728
0.0681145
-0.00965286
0.0686448
-0.00864046
0.0691237
-0.00772947
0.0695548
-0.00691241
0.0699422
-0.0061813
0.0702896
-0.00552837
0.0706009
-0.00494585
0.0708796
-0.00442659
0.0711291
-0.00396374
0.0713523
-0.00355121
0.071552
-0.00318327
0.0717307
-0.0028549
0.0718908
-0.00256152
0.0720342
-0.00229891
0.0721628
-0.00206371
0.0722783
-0.00185205
0.0723822
-0.00166202
0.0724757
-0.0014895
0.0725603
-0.00133445
0.0726364
-0.00119167
0.0727058
-0.00106374
0.0727684
-0.000943338
0.0728257
-0.00083646
0.0728775
-0.000732979
0.0729252
-0.000642466
0.0729685
-0.000552447
0.0730085
-0.000474286
0.0730454
-0.000396281
0.0730794
-0.000326077
0.073112
-0.000260167
0.0731415
-0.000191376
0.0731714
-0.000138582
0.0731969
-6.26397e-05
0.0732242
-2.42142e-05
0.0732449
6.7655e-05
0.0732673
8.94537e-05
0.000202653
0.0420212
0.0112248
0.0430121
0.011814
0.043909
0.0114377
0.0445029
0.0109057
0.0448293
0.0102266
0.0449559
0.00928205
0.04492
0.0081253
0.0447681
0.00683308
0.0445589
0.0054403
0.0443584
0.00397198
0.0442638
0.00245419
0.044242
0.000872823
0.0443934
-0.00084858
0.0447147
-0.00253515
0.0452438
-0.00438327
0.045981
-0.00636575
0.0469112
-0.00852115
0.0480027
-0.0108809
0.0492101
-0.0134491
0.0504686
-0.016206
0.0516958
-0.0190953
0.052802
-0.0220237
0.0537167
-0.0248591
0.0544261
-0.0274503
0.0549838
-0.0296602
0.0554482
-0.0313567
0.0558792
-0.0324626
0.0563309
-0.0329561
0.0568381
-0.0328534
0.0574148
-0.0322172
0.058064
-0.0311532
0.058775
-0.0297585
0.0595306
-0.0281212
0.0603121
-0.026324
0.0611026
-0.0244415
0.0618878
-0.0225361
0.0626563
-0.0206577
0.0633995
-0.0188433
0.0641112
-0.0171185
0.0647872
-0.0154995
0.065426
-0.0139946
0.0660271
-0.0126068
0.0665897
-0.0113354
0.0671139
-0.010177
0.0676001
-0.00912674
0.0680495
-0.00817883
0.0684634
-0.00732632
0.0688435
-0.00656142
0.0691919
-0.00587676
0.069511
-0.00526488
0.0698031
-0.00471869
0.0700707
-0.00423135
0.0703161
-0.00379665
0.0705417
-0.0034088
0.0707493
-0.0030625
0.0709409
-0.00275317
0.0711182
-0.00247624
0.071283
-0.00222843
0.0714363
-0.00200542
0.0715799
-0.00180555
0.0717144
-0.00162403
0.0718413
-0.0014614
0.0719611
-0.00131147
0.0720751
-0.00117774
0.0721834
-0.00105161
0.0722872
-0.000940298
0.0723865
-0.000832205
0.0724822
-0.000738227
0.0725744
-0.00064465
0.0726638
-0.000563644
0.0727509
-0.00048344
0.0728354
-0.000410542
0.0729195
-0.000344266
0.0730006
-0.000272451
0.0730833
-0.00022126
0.0731617
-0.000141124
0.0732431
-0.00010558
0.0733181
-7.35428e-06
0.0733957
1.18475e-05
0.000133678
0.0540239
0.0118211
0.0544285
0.0114095
0.0547289
0.0111372
0.0549151
0.0107196
0.0550464
0.0100953
0.055091
0.00923749
0.055042
0.00817433
0.0549284
0.00694663
0.0547894
0.0055793
0.0546665
0.00409494
0.0546035
0.00251719
0.0546597
0.000816599
0.0547865
-0.000975351
0.0551074
-0.00285608
0.055588
-0.00486388
0.0562214
-0.00699915
0.0569837
-0.00928339
0.0578318
-0.011729
0.0587102
-0.0143274
0.0595523
-0.0170482
0.0602906
-0.0198336
0.0608644
-0.0225976
0.0612337
-0.0252283
0.0613853
-0.0276019
0.0613336
-0.0296086
0.0611299
-0.031153
0.0608415
-0.0321742
0.0605382
-0.0326528
0.0602955
-0.0326107
0.0601749
-0.0320967
0.0601834
-0.0311616
0.0603076
-0.0298827
0.0605316
-0.0283453
0.0608394
-0.0266318
0.0612149
-0.024817
0.0616431
-0.0229643
0.06211
-0.0211247
0.0626031
-0.0193364
0.063111
-0.0176265
0.0636244
-0.0160128
0.0641353
-0.0145056
0.0646376
-0.0131091
0.0651264
-0.0118242
0.0655981
-0.0106487
0.06605
-0.00957863
0.0664799
-0.0086088
0.0668867
-0.00773311
0.0672701
-0.00694478
0.0676303
-0.00623701
0.0679683
-0.00560285
0.0682851
-0.00503552
0.0685822
-0.00452845
0.068861
-0.00407546
0.0691231
-0.0036709
0.06937
-0.00330937
0.0696032
-0.00298637
0.069824
-0.00269705
0.0700339
-0.00243832
0.0702339
-0.00220542
0.0704254
-0.00199701
0.070609
-0.00180768
0.0707861
-0.00163849
0.070957
-0.00148241
0.071123
-0.00134372
0.0712841
-0.00121274
0.0714415
-0.00109767
0.0715951
-0.000985796
0.0717457
-0.000888866
0.0718936
-0.000792555
0.0720391
-0.000709061
0.0721831
-0.000627456
0.0723247
-0.00055217
0.0724667
-0.000486308
0.0726061
-0.000411807
0.0727478
-0.000362977
0.0728858
-0.000279093
0.0730273
-0.00024711
0.0731632
-0.000143251
0.0733021
-0.000127002
2.6116e-06
0.0790111
0.0145094
-0.0816994
0.0762708
0.0141498
0.0739956
0.0134124
0.0722477
0.0124674
0.0710356
0.0113075
0.07029
0.00998306
0.0699136
0.00855069
0.0698343
0.007026
0.0699977
0.00541585
0.0703621
0.0037305
0.0709225
0.00195683
0.0716861
5.29947e-05
0.0725485
-0.00183769
0.0736047
-0.00391231
0.0747914
-0.00605063
0.0760905
-0.00829817
0.0774703
-0.0106633
0.078881
-0.0131397
0.0802605
-0.0157069
0.0815384
-0.0183261
0.0826426
-0.0209378
0.0835064
-0.0234614
0.0840805
-0.0258024
0.0843404
-0.0278619
0.0842825
-0.0295506
0.083926
-0.0307965
0.0833061
-0.0315543
0.0824655
-0.0318122
0.0814475
-0.0315927
0.0802997
-0.0309489
0.0790803
-0.0299422
0.0778406
-0.028643
0.0766245
-0.0271292
0.0754679
-0.0254752
0.0743967
-0.0237457
0.0734264
-0.0219941
0.072564
-0.0202622
0.0718091
-0.0185815
0.0711567
-0.0169741
0.0705985
-0.0154547
0.0701249
-0.014032
0.0697258
-0.01271
0.0693913
-0.0114896
0.0691119
-0.0103693
0.0688791
-0.00934585
0.0686852
-0.00841489
0.0685234
-0.00757129
0.0683878
-0.00680923
0.0682735
-0.00612267
0.0681762
-0.00550549
0.0680922
-0.00495159
0.0680189
-0.00445511
0.0679538
-0.00401036
0.0678951
-0.00361225
0.0678414
-0.00325567
0.0677916
-0.00293656
0.0677448
-0.00265018
0.0677003
-0.00239383
0.0676575
-0.00216267
0.0676163
-0.00195578
0.0675761
-0.00176751
0.0675371
-0.00159942
0.0674987
-0.00144403
0.0674612
-0.00130623
0.0674242
-0.00117576
0.067388
-0.00106147
0.0673523
-0.000950089
0.0673173
-0.00085382
0.067283
-0.000758243
0.0672491
-0.000675218
0.0672166
-0.000594951
0.0671843
-0.000519868
0.0671544
-0.000456387
0.0671242
-0.000381616
0.0670976
-0.00033638
0.0670698
-0.000251279
0.0670462
-0.000223519
0.0670201
-0.00011712
0.0669972
-0.000104135
2.95943e-05
0.0936298
0.0159186
-0.0950391
0.0922729
0.0155067
0.0910023
0.014683
0.0898546
0.0136151
0.0888493
0.0123128
0.0880097
0.0108227
0.0873561
0.00920434
0.0868984
0.00748364
0.0866345
0.00567981
0.0865707
0.00379429
0.0866779
0.00184958
0.086866
-0.000135044
0.0873173
-0.00228903
0.087869
-0.00446403
0.0885253
-0.00670692
0.0892516
-0.0090245
0.0900036
-0.0114153
0.0907282
-0.0138643
0.0913658
-0.0163445
0.0918545
-0.0188148
0.0921347
-0.021218
0.092156
-0.0234827
0.0918835
-0.0255298
0.0913026
-0.027281
0.0904189
-0.028667
0.089259
-0.0296365
0.0878672
-0.0301624
0.0863012
-0.0302463
0.0846254
-0.0299169
0.0829022
-0.0292257
0.0811927
-0.0282327
0.0795495
-0.0269998
0.0780113
-0.0255909
0.0766025
-0.0240664
0.0753355
-0.0224787
0.0742127
-0.0208712
0.0732289
-0.0192785
0.0723746
-0.0177272
0.0716377
-0.0162372
0.0710052
-0.0148223
0.0704645
-0.0134913
0.0700036
-0.012249
0.0696114
-0.0110975
0.0692781
-0.010036
0.068995
-0.00906271
0.0687542
-0.00817414
0.068549
-0.00736613
0.0683736
-0.00663377
0.0682228
-0.00597186
0.0680923
-0.00537501
0.0679785
-0.00483783
0.0678785
-0.00435507
0.0677897
-0.00392156
0.0677101
-0.00353268
0.0676381
-0.00318364
0.0675723
-0.00287079
0.0675117
-0.00258954
0.0674554
-0.00233753
0.0674027
-0.00210993
0.0673531
-0.00190619
0.0673061
-0.00172049
0.0672614
-0.0015548
0.0672188
-0.00140135
0.067178
-0.00126549
0.0671389
-0.00113661
0.0671013
-0.00102394
0.0670652
-0.000913989
0.0670305
-0.000819071
0.0669973
-0.000725041
0.0669651
-0.000643083
0.066935
-0.000564855
0.0669057
-0.000490501
0.0668792
-0.000429934
0.066853
-0.000355437
0.0668307
-0.000314034
0.0668079
-0.000228476
0.0667893
-0.000204949
0.0667692
-9.69816e-05
0.0667522
-8.71623e-05
4.94909e-05
0.100768
0.0167339
-0.101583
0.100534
0.0157404
0.100392
0.0148258
0.100217
0.0137892
0.100002
0.0125285
0.0997616
0.0110629
0.0995257
0.00944021
0.0993177
0.0076917
0.0991543
0.00584314
0.0990471
0.00390147
0.0989901
0.00190659
0.0989947
-0.000139628
0.0990848
-0.00237916
0.0992125
-0.00459167
0.0993619
-0.00685635
0.0995052
-0.0091678
0.0996028
-0.0115129
0.0996094
-0.0138709
0.099477
-0.0162121
0.0991586
-0.0184963
0.0986129
-0.0206724
0.0978107
-0.0226805
0.0967385
-0.0244577
0.0954018
-0.0259442
0.0938249
-0.0270902
0.0920502
-0.0278617
0.0901332
-0.0282455
0.088137
-0.0282501
0.0861238
-0.0279037
0.0841476
-0.0272495
0.0822535
-0.0263385
0.0804758
-0.0252222
0.0788367
-0.0239518
0.0773468
-0.0225765
0.0760082
-0.0211402
0.0748173
-0.0196803
0.0737661
-0.0182273
0.0728443
-0.0168054
0.0720404
-0.0154333
0.0713424
-0.0141242
0.0707383
-0.0128872
0.0702171
-0.0117278
0.0697682
-0.0106485
0.069382
-0.00964988
0.06905
-0.00873065
0.0687642
-0.00788841
0.0685179
-0.00711984
0.0683051
-0.0064209
0.0681204
-0.00578718
0.0679594
-0.00521405
0.0678184
-0.00469675
0.067694
-0.00423067
0.0675835
-0.00381113
0.0674849
-0.00343401
0.067396
-0.00309483
0.0673156
-0.00279034
0.0672422
-0.00251614
0.0671749
-0.00227022
0.0671127
-0.00204778
0.0670551
-0.00184859
0.0670014
-0.00166679
0.0669513
-0.00150464
0.0669042
-0.00135426
0.0668599
-0.00122126
0.0668182
-0.00109491
0.0667789
-0.000984609
0.0667418
-0.000876921
0.0667067
-0.000783978
0.0666739
-0.000692211
0.0666427
-0.000611883
0.0666141
-0.000536261
0.0665868
-0.000463193
0.0665628
-0.000405878
0.0665396
-0.000332246
0.0665203
-0.000294737
0.0665012
-0.000209457
0.0664863
-0.000189965
0.0664707
-8.14121e-05
0.066458
-7.45008e-05
6.37698e-05
0.103402
0.0164182
-0.103086
0.103902
0.0152405
0.104419
0.0143089
0.104897
0.013311
0.105299
0.012126
0.105616
0.0107462
0.105853
0.00920273
0.106021
0.00752404
0.106129
0.00573477
0.106183
0.00384813
0.106201
0.00188873
0.106196
-0.000134799
0.106119
-0.00230214
0.105997
-0.0044702
0.10581
-0.0066695
0.105536
-0.00889369
0.105149
-0.0111251
0.104618
-0.0133399
0.103914
-0.0155081
0.10301
-0.0175927
0.101887
-0.0195496
0.100537
-0.0213303
0.0989649
-0.0228856
0.0971911
-0.0241705
0.09525
-0.025149
0.0931871
-0.0257988
0.0910547
-0.0261131
0.088906
-0.0261014
0.0867899
-0.0257876
0.0847471
-0.0252067
0.082809
-0.0244003
0.0809983
-0.0234115
0.0793295
-0.0222829
0.0778087
-0.0210557
0.0764361
-0.0197677
0.0752076
-0.0184518
0.0741157
-0.0171354
0.0731509
-0.0158406
0.0723024
-0.0145848
0.0715592
-0.0133809
0.07091
-0.0122381
0.0703445
-0.0111622
0.0698525
-0.0101565
0.0694249
-0.00922232
0.0690534
-0.00835918
0.0687306
-0.00756552
0.0684495
-0.00683881
0.0682044
-0.00617583
0.0679902
-0.00557289
0.0678022
-0.00502606
0.0676366
-0.00453117
0.0674901
-0.0040842
0.0673599
-0.00368092
0.0672436
-0.0033177
0.0671392
-0.00299039
0.0670449
-0.00269612
0.0669595
-0.00243069
0.0668817
-0.00219238
0.0668104
-0.00197654
0.066745
-0.00178318
0.0666847
-0.00160648
0.0666289
-0.0014489
0.0665773
-0.00130259
0.0665293
-0.00117328
0.0664847
-0.00105031
0.0664432
-0.00094306
0.0664046
-0.000838365
0.0663686
-0.000747974
0.0663355
-0.000659081
0.0663045
-0.000580922
0.0662766
-0.000508346
0.0662505
-0.000437124
0.0662279
-0.000383238
0.0662067
-0.000311096
0.0661894
-0.000277364
0.066173
-0.000193116
0.0661603
-0.00017728
0.066148
-6.91099e-05
0.0661383
-6.47366e-05
7.38947e-05
0.103706
0.0154755
-0.102763
0.104512
0.0144343
0.105331
0.0134894
0.106148
0.0124945
0.106901
0.0113724
0.107558
0.0100895
0.108107
0.00865411
0.108545
0.00708598
0.108874
0.00540525
0.109094
0.00362819
0.109215
0.00176762
0.109239
-0.000158757
0.10912
-0.00218316
0.108885
-0.00423518
0.108525
-0.00630862
0.108023
-0.00839181
0.107364
-0.0104667
0.106534
-0.0125095
0.105518
-0.014492
0.104305
-0.0163805
0.102894
-0.0181376
0.101287
-0.019724
0.0995024
-0.0211007
0.0975649
-0.022233
0.09551
-0.0230941
0.0933791
-0.0236679
0.0912164
-0.0239503
0.0890647
-0.0239497
0.0869625
-0.0236855
0.0849418
-0.023186
0.083027
-0.0224855
0.0812358
-0.0216203
0.0795793