/*--------------------------------*- C++ -*----------------------------------*\
| =========                 |                                                 |
| \\      /  F ield         | OpenFOAM: The Open Source CFD Toolbox           |
|  \\    /   O peration     | Version:  4.1                                   |
|   \\  /    A nd           | Web:      www.OpenFOAM.org                      |
|    \\/     M anipulation  |                                                 |
\*---------------------------------------------------------------------------*/
FoamFile
{
    version     2.0;
    format      ascii;
    class       volVectorField;
    location    "10";
    object      U;
}
// * * * * * * * * * * * * * * * * * * * * * * * * * * * * * * * * * * * * * //

dimensions      [0 1 -1 0 0 0 0];

internalField   nonuniform List<vector> 
3800
(
(-0.0369864 0.0247419 2.69829e-19)
(-0.0682273 0.0502222 0)
(-0.0549463 0.0596649 4.76148e-19)
(0.0053797 0.0605859 2.19122e-19)
(0.118135 0.0599053 -4.12702e-19)
(0.281889 0.0619591 -5.80622e-19)
(0.491237 0.0775713 1.83044e-19)
(0.677973 0.0856383 0)
(0.956231 0.120305 -1.67434e-19)
(1.06484 0.126283 0)
(-0.046742 0.025792 -1.34723e-19)
(-0.0703414 0.0396195 1.28198e-19)
(-0.0276596 0.0387218 -4.84002e-19)
(0.092148 0.0376859 -6.6859e-19)
(0.289156 0.0456865 -1.44851e-21)
(0.539296 0.0646875 1.92869e-19)
(0.792496 0.0941454 -1.81885e-19)
(1.03607 0.11869 -1.71915e-19)
(1.24844 0.156285 1.67323e-19)
(1.35384 0.157527 3.2342e-19)
(-0.0550028 0.0271289 1.37049e-19)
(-0.0574569 0.0325036 -1.32353e-19)
(0.0426559 0.0271299 2.41711e-19)
(0.257366 0.0347806 -2.76007e-21)
(0.550025 0.0618027 2.07401e-19)
(0.851773 0.0995418 1.93627e-19)
(1.11213 0.13804 1.81849e-19)
(1.31986 0.169078 1.71824e-19)
(1.43948 0.192001 1.58369e-19)
(1.54325 0.196923 -1.50699e-19)
(-0.0589595 0.0258762 -7.06342e-22)
(-0.0226044 0.0233724 -1.35004e-19)
(0.17035 0.0235748 0)
(0.499056 0.0548338 2.22343e-19)
(0.85198 0.104023 -2.11792e-19)
(1.14422 0.15146 0)
(1.3519 0.188376 0)
(1.46977 0.207076 0)
(1.53801 0.218402 -1.58381e-19)
(1.56075 0.21414 3.00662e-19)
(-0.05642 0.0208979 2.90427e-19)
(0.0452823 0.0110121 7.70101e-22)
(0.368219 0.0359451 1.27217e-19)
(0.781621 0.0983948 1.12899e-19)
(1.1247 0.159549 1.05495e-19)
(1.35216 0.202869 9.58755e-20)
(1.47431 0.225083 0)
(1.53305 0.232051 8.01599e-20)
(1.5488 0.232686 -3.72292e-19)
(1.54738 0.22104 4.98409e-19)
(-0.0446003 0.0120561 -4.44521e-19)
(0.161869 0.00369716 3.56348e-21)
(0.619044 0.0734499 -2.53845e-19)
(1.04295 0.156397 2.34673e-19)
(1.3198 0.213493 -3.12244e-19)
(1.46462 0.242308 9.91045e-20)
(1.52798 0.251599 0)
(1.54537 0.250559 -8.01861e-20)
(1.54375 0.243639 7.39413e-20)
(1.54184 0.233647 2.6348e-19)
(-0.0176793 0.00111374 0)
(0.339331 0.0194732 0)
(0.86965 0.13133 -1.28853e-19)
(1.24118 0.215795 1.20701e-19)
(1.43721 0.259052 -1.02343e-19)
(1.52028 0.274408 9.65276e-20)
(1.54317 0.274486 1.64521e-19)
(1.5412 0.267304 -1.56038e-19)
(1.53155 0.256763 -1.36334e-19)
(1.51626 0.245663 6.44796e-20)
(0.033612 -0.0075948 8.3546e-20)
(0.55751 0.0677421 0)
(1.07936 0.197751 -6.27261e-20)
(1.3748 0.270991 2.3673e-19)
(1.50225 0.299315 -1.59035e-19)
(1.53957 0.30326 0)
(1.5393 0.295993 0)
(1.52633 0.284448 0)
(1.50977 0.270324 -1.28808e-19)
(1.4968 0.25946 1.22813e-19)
(0.11411 -0.00470773 -4.19417e-20)
(0.768291 0.138908 -4.71488e-22)
(1.23813 0.266597 -6.77338e-20)
(1.45768 0.322679 2.91665e-20)
(1.52997 0.336195 2.75005e-20)
(1.5382 0.330669 4.61122e-20)
(1.52464 0.317975 0)
(1.50621 0.302456 -1.66879e-20)
(1.4894 0.286634 -7.50813e-20)
(1.47278 0.275175 5.73751e-20)
(0.221156 0.0170658 0)
(0.943789 0.218591 -3.96618e-20)
(1.34855 0.334977 0)
(1.50142 0.371581 -1.54053e-20)
(1.53419 0.371518 -1.4457e-20)
(1.5241 0.358266 -2.21604e-20)
(1.50364 0.340698 0)
(1.48301 0.321953 1.66946e-20)
(1.46361 0.304289 1.48889e-20)
(1.447 0.290542 1.24905e-20)
(-0.0217566 0.0192046 0)
(-0.077616 0.0303528 -3.04672e-20)
(-0.147343 0.0320346 0)
(-0.209963 0.0317853 -4.16078e-20)
(-0.266431 0.0314491 -1.35726e-20)
(-0.318512 0.0312049 2.62375e-20)
(-0.366797 0.0310006 -2.47926e-20)
(-0.412081 0.0308128 2.47717e-20)
(-0.45488 0.0306749 -3.4626e-22)
(-0.494679 0.0306116 2.45812e-20)
(-0.0233613 0.0546327 -9.2987e-20)
(-0.0753355 0.0878246 5.98466e-20)
(-0.138343 0.0935933 -5.7585e-20)
(-0.194225 0.0931222 2.72998e-20)
(-0.243722 0.0921112 1.33428e-19)
(-0.28836 0.091317 -5.07184e-20)
(-0.328657 0.0906455 0)
(-0.365326 0.0900318 -2.45756e-20)
(-0.398955 0.08957 -2.41781e-20)
(-0.429335 0.0893155 0)
(-0.0259774 0.081501 6.2043e-20)
(-0.0712013 0.1358 0)
(-0.122106 0.147594 1.74745e-19)
(-0.165878 0.147803 -2.22321e-19)
(-0.202939 0.146202 5.25078e-20)
(-0.234475 0.14471 0)
(-0.260933 0.143417 0)
(-0.282846 0.14225 0)
(-0.300868 0.141313 1.98739e-19)
(-0.315786 0.140663 -1.94976e-19)
(-0.0284987 0.0959902 0)
(-0.0658234 0.169037 -1.2516e-19)
(-0.101503 0.189388 2.35757e-19)
(-0.129753 0.191877 -1.11376e-19)
(-0.151005 0.190021 1.09753e-19)
(-0.166113 0.187664 -3.16495e-19)
(-0.175548 0.185513 -6.13596e-21)
(-0.179712 0.183632 1.96834e-19)
(-0.17892 0.182066 1.99343e-19)
(-0.175386 0.18066 -2.91541e-19)
(-0.0298333 0.0970961 1.29594e-19)
(-0.0599355 0.184083 -2.52906e-19)
(-0.0799243 0.215084 5.65571e-22)
(-0.0913439 0.221925 1.01288e-21)
(-0.0954031 0.220586 1.11618e-19)
(-0.092818 0.217319 -3.12715e-19)
(-0.0841889 0.214022 0)
(-0.070209 0.211219 -9.90696e-20)
(-0.050766 0.209159 9.68789e-20)
(-0.0260547 0.207425 -3.92818e-19)
(-0.0293792 0.0868636 -8.56198e-22)
(-0.054338 0.180063 2.54391e-19)
(-0.0608859 0.22154 1.19388e-19)
(-0.0564476 0.234455 1.13152e-19)
(-0.0436761 0.234878 1.08702e-19)
(-0.0237814 0.231001 1.0483e-19)
(0.00239041 0.226231 0)
(0.0339325 0.221848 9.90218e-20)
(0.0688699 0.218846 2.93018e-19)
(0.116817 0.217887 -9.08201e-20)
(-0.0274292 0.0698177 2.63265e-22)
(-0.0500453 0.159545 1.28399e-19)
(-0.0476079 0.207514 0)
(-0.0306549 0.226098 -2.28815e-19)
(-0.00350926 0.228979 2.13706e-19)
(0.0315181 0.224997 0)
(0.0727165 0.218665 0)
(0.121113 0.21229 0)
(0.165072 0.207206 -1.84671e-19)
(0.239482 0.202732 -3.76726e-19)
(-0.0253201 0.0514603 -1.33336e-19)
(-0.0483824 0.128831 1.28757e-19)
(-0.0424134 0.175871 2.38586e-19)
(-0.0180355 0.196197 -2.08024e-21)
(0.0191538 0.200052 2.09868e-19)
(0.0658144 0.195705 1.99249e-19)
(0.119409 0.187689 1.90756e-19)
(0.186877 0.180402 1.83951e-19)
(0.234664 0.174762 1.84632e-19)
(0.356124 0.165611 -1.78622e-19)
(-0.0252055 0.0364861 -4.01201e-19)
(-0.0511346 0.0961803 -1.2705e-19)
(-0.0460353 0.134205 -4.74938e-19)
(-0.0184642 0.150415 -2.21571e-19)
(0.0263313 0.152291 -2.78723e-21)
(0.0859379 0.147 -2.01645e-19)
(0.161719 0.13896 1.83193e-19)
(0.261536 0.135062 -1.83926e-19)
(0.333107 0.132248 1.74838e-19)
(0.54211 0.128564 -3.46161e-19)
(-0.0290491 0.0275157 2.67787e-19)
(-0.0590473 0.0687693 0)
(-0.0546938 0.09261 2.37982e-19)
(-0.0205505 0.100783 1.39773e-21)
(0.0426052 0.0997128 -4.20562e-22)
(0.136313 0.0950168 1.94154e-19)
(0.268428 0.0944648 -5.55173e-19)
(0.412201 0.0957775 0)
(0.574205 0.105163 -1.74743e-19)
(0.822736 0.11728 0)
(-0.543502 0.0305144 0)
(-0.602455 0.0256843 0)
(-0.650479 0.0233248 0)
(-0.694622 0.0197184 1.06658e-21)
(-0.730892 0.0171334 0)
(-0.762995 0.0142691 0)
(-0.789139 0.0119414 -1.87484e-20)
(-0.811509 0.00962661 -2.80409e-22)
(-0.829388 0.00765839 1.00608e-21)
(-0.844059 0.00581883 -1.11821e-22)
(-0.855064 0.00420568 1.94253e-20)
(-0.862887 0.0026147 1.21882e-21)
(-0.867075 0.00100485 1.21347e-21)
(-0.868062 -0.00061464 0)
(-0.865455 -0.00248567 0)
(-0.859063 -0.00463082 0)
(-0.8482 -0.00705453 -1.77095e-20)
(-0.832234 -0.0098207 1.77303e-20)
(-0.810347 -0.0129416 0)
(-0.781815 -0.0164008 0)
(-0.745887 -0.0201489 0)
(-0.70206 -0.0240525 1.26098e-20)
(-0.650113 -0.0279191 -1.26248e-20)
(-0.59025 -0.0315032 -1.02913e-20)
(-0.523072 -0.0345928 9.08157e-21)
(-0.449814 -0.0369159 4.63583e-22)
(-0.371889 -0.0384479 5.08249e-21)
(-0.29082 -0.0391718 -5.08857e-21)
(-0.208584 -0.0389266 2.57017e-21)
(-0.126624 -0.0381184 -2.57325e-21)
(-0.0463665 -0.0365472 0)
(0.030876 -0.0346169 -6.2778e-23)
(0.104384 -0.032411 6.28536e-23)
(0.173712 -0.0300762 8.29202e-22)
(0.238481 -0.0277074 -8.30202e-22)
(0.29858 -0.025388 0)
(0.354051 -0.0231863 1.36301e-21)
(0.405024 -0.0211388 -1.36466e-21)
(0.45169 -0.0192429 0)
(0.494293 -0.0174932 0)
(0.533114 -0.0158899 0)
(0.568446 -0.0144312 0)
(0.600585 -0.0131109 7.37575e-23)
(0.629822 -0.0119198 -6.86496e-23)
(0.656431 -0.0108478 6.34011e-23)
(0.68067 -0.00988476 0)
(0.702777 -0.00902073 0)
(0.722969 -0.00824597 0)
(0.741439 -0.00755139 -3.35728e-22)
(0.758367 -0.00692834 3.33776e-23)
(0.773908 -0.00636912 3.03131e-22)
(0.788205 -0.00586638 0)
(0.80138 -0.00541395 0)
(0.81355 -0.00500571 0)
(0.824805 -0.00463694 0)
(0.835243 -0.00430252 1.56971e-22)
(0.844927 -0.00399902 -1.57164e-22)
(0.853944 -0.0037221 0)
(0.862327 -0.00346941 0)
(0.870166 -0.00323722 0)
(0.877459 -0.00302404 -4.43115e-23)
(0.884308 -0.00282673 4.43663e-23)
(0.890674 -0.00264426 0)
(0.896681 -0.0024743 -3.12711e-23)
(0.902245 -0.0023158 5.91164e-23)
(0.907527 -0.00216758 -3.1397e-24)
(0.912387 -0.00202793 -2.47321e-23)
(0.917037 -0.00189715 0)
(0.921269 -0.00177257 0)
(0.925363 -0.00165554 0)
(0.929024 -0.00154349 6.60089e-24)
(0.932628 -0.00143622 -8.72428e-25)
(0.935749 -0.00133562 -5.74392e-24)
(0.938935 -0.0012328 -4.18118e-24)
(0.941509 -0.00114508 4.18644e-24)
(0.944373 -0.00104006 -1.38565e-24)
(0.946326 -0.000970718 1.3874e-24)
(0.949043 -0.000854603 -3.55268e-25)
(0.950184 -0.000813309 2.60247e-25)
(0.953079 -0.00067552 8.59994e-26)
(-0.464979 0.0886717 5.9876e-20)
(-0.521448 0.0744226 -6.30847e-20)
(-0.561642 0.0671094 -2.05815e-21)
(-0.600692 0.0568228 -3.20746e-21)
(-0.63145 0.0490643 -2.21754e-21)
(-0.65875 0.040849 -2.28203e-21)
(-0.680441 0.0339521 -7.75006e-20)
(-0.698582 0.0272735 7.28675e-20)
(-0.712597 0.0214512 -3.60922e-21)
(-0.723527 0.016046 -2.43122e-21)
(-0.731154 0.0112817 -8.03681e-20)
(-0.735858 0.00672946 7.67932e-20)
(-0.737217 0.00222832 -1.21072e-21)
(-0.735765 -0.00272341 0)
(-0.731112 -0.00811287 0)
(-0.722894 -0.0142262 0)
(-0.710601 -0.0211588 0)
(-0.693621 -0.0290808 0)
(-0.671209 -0.0380674 6.52124e-20)
(-0.642678 -0.0480706 -6.52832e-20)
(-0.607287 -0.0589828 -5.47123e-20)
(-0.564514 -0.070413 5.31282e-21)
(-0.514126 -0.0817973 5.13888e-20)
(-0.456321 -0.0923984 4.14677e-20)
(-0.391561 -0.101695 -2.23436e-20)
(-0.32142 -0.10865 -1.70698e-20)
(-0.247206 -0.113345 1.05543e-20)
(-0.169955 -0.115784 -1.84171e-20)
(-0.0920381 -0.114881 1.33126e-20)
(-0.0147246 -0.111841 -5.45883e-21)
(0.0608472 -0.107259 0)
(0.133093 -0.101588 4.17217e-22)
(0.201467 -0.0950994 -3.4377e-22)
(0.265657 -0.0882046 0)
(0.325394 -0.0812054 0)
(0.3806 -0.0743389 2.25995e-21)
(0.431351 -0.0677867 2.06669e-22)
(0.477826 -0.0616722 -2.76399e-21)
(0.520246 -0.0560342 -1.63489e-22)
(0.558851 -0.0508572 -1.62117e-22)
(0.593906 -0.0461252 0)
(0.625696 -0.041826 -1.50108e-22)
(0.654512 -0.037941 -2.14826e-22)
(0.680633 -0.0344433 -2.14208e-21)
(0.704322 -0.031302 1.03255e-22)
(0.725826 -0.0284854 1.80449e-21)
(0.74537 -0.0259628 -1.70004e-21)
(0.763159 -0.0237044 1.5061e-21)
(0.779379 -0.0216828 0)
(0.794195 -0.0198721 0)
(0.807755 -0.0182495 -6.88305e-23)
(0.820193 -0.0167928 0)
(0.831622 -0.015484 -5.55572e-23)
(0.84215 -0.0143047 -4.3374e-22)
(0.851861 -0.013241 3.39816e-22)
(0.860846 -0.0122776 3.98492e-23)
(0.869161 -0.0114046 2.38431e-22)
(0.876889 -0.0106089 -6.15911e-23)
(0.884059 -0.0098837 -2.73161e-22)
(0.89075 -0.00921803 -1.94417e-22)
(0.896965 -0.00860741 3.45346e-22)
(0.902792 -0.00804272 -1.93518e-22)
(0.908198 -0.00752084 -1.55264e-22)
(0.913293 -0.00703511 1.52935e-23)
(0.918004 -0.00658215 1.08228e-22)
(0.922469 -0.00615893 -1.25864e-23)
(0.926574 -0.00575996 0)
(0.93049 -0.00538675 -4.78372e-23)
(0.934055 -0.00503079 -4.292e-24)
(0.937486 -0.00469689 3.35401e-23)
(0.940564 -0.00437659 2.58183e-23)
(0.943564 -0.00407032 -3.1776e-23)
(0.946187 -0.00378271 -5.13168e-24)
(0.94881 -0.00348844 3.79661e-24)
(0.950975 -0.00323763 -4.51197e-24)
(0.9533 -0.00293513 -3.01985e-24)
(0.954945 -0.00273702 -2.89653e-25)
(0.957112 -0.00240133 -2.39002e-24)
(0.958075 -0.00228395 -1.0242e-24)
(0.960355 -0.00188567 -7.15506e-25)
(-0.331692 0.138773 1.89943e-21)
(-0.38118 0.116458 1.98548e-21)
(-0.410368 0.10368 1.38237e-19)
(-0.440624 0.0881666 -1.34117e-19)
(-0.463573 0.0753059 -1.43511e-19)
(-0.483576 0.062571 1.50503e-19)
(-0.498993 0.0513708 4.72697e-21)
(-0.51113 0.0409045 4.81231e-21)
(-0.519834 0.0315637 -1.2194e-23)
(-0.525619 0.0229859 2.4531e-21)
(-0.528557 0.015208 1.60579e-19)
(-0.528856 0.00793497 -1.58262e-19)
(-0.526828 0.000852568 7.84849e-20)
(-0.522282 -0.00684296 -8.6592e-22)
(-0.514833 -0.0151277 -1.5429e-19)
(-0.50437 -0.0244239 7.65971e-20)
(-0.49044 -0.0350304 0)
(-0.472486 -0.0472141 0)
(-0.449801 -0.0611986 -6.70717e-20)
(-0.421854 -0.0769221 6.71339e-20)
(-0.387883 -0.0942761 5.6795e-20)
(-0.347367 -0.112659 -5.24014e-21)
(-0.30006 -0.131212 -5.35445e-20)
(-0.246386 -0.148733 4.02282e-20)
(-0.185992 -0.164601 -4.16369e-20)
(-0.120836 -0.176117 2.88922e-20)
(-0.0531486 -0.183535 -2.89197e-20)
(0.0171647 -0.186147 0)
(0.0890363 -0.184734 1.27234e-20)
(0.158964 -0.179758 -1.22508e-20)
(0.226315 -0.172342 4.23076e-21)
(0.290413 -0.163082 -6.1219e-21)
(0.350702 -0.152523 1.60054e-21)
(0.406905 -0.141298 -2.27063e-21)
(0.458882 -0.129917 2.27287e-21)
(0.506632 -0.118753 1.32417e-22)
(0.550261 -0.108069 0)
(0.589969 -0.0980473 1.60795e-22)
(0.626017 -0.0888072 -4.73297e-21)
(0.658662 -0.0803677 2.44934e-22)
(0.688144 -0.0726908 4.97306e-21)
(0.714717 -0.0657366 4.84773e-21)
(0.738646 -0.0594668 -4.41953e-21)
(0.76019 -0.0538365 -3.72462e-21)
(0.779593 -0.0487948 4.10032e-21)
(0.797079 -0.0442879 1.12555e-22)
(0.812853 -0.0402632 1.02854e-22)
(0.827103 -0.0366703 1.82235e-22)
(0.839995 -0.0334631 1.26556e-21)
(0.85168 -0.0305982 -1.19397e-21)
(0.862291 -0.0280376 6.90316e-23)
(0.871949 -0.0257451 9.24528e-22)
(0.880754 -0.0236909 -8.1661e-22)
(0.888805 -0.0218449 4.99146e-23)
(0.896176 -0.0201845 4.46706e-23)
(0.902947 -0.0186847 -6.33985e-22)
(0.90917 -0.0173291 1.16081e-21)
(0.914913 -0.0160968 -4.99187e-22)
(0.920207 -0.0149764 4.50655e-22)
(0.925117 -0.0139505 -4.22671e-22)
(0.929648 -0.0130111 2.25662e-23)
(0.933872 -0.0121445 2.01029e-23)
(0.937769 -0.0113444 1.79e-23)
(0.941419 -0.0106016 -1.18343e-22)
(0.944778 -0.00990874 2.37861e-22)
(0.947938 -0.00926343 -9.27405e-23)
(0.950834 -0.00865376 1.07139e-23)
(0.953567 -0.00808601 -6.35429e-23)
(0.956061 -0.00754219 8.22918e-23)
(0.958413 -0.00703504 7.41335e-24)
(0.960553 -0.00654559 5.00373e-23)
(0.96256 -0.00608035 -3.8472e-23)
(0.964377 -0.00564077 2.38716e-23)
(0.966072 -0.00519226 -1.43727e-23)
(0.967574 -0.00480878 -3.68231e-24)
(0.969001 -0.00434358 6.29979e-25)
(0.970148 -0.00403979 7.64521e-24)
(0.971398 -0.00351965 3.61442e-25)
(0.972074 -0.00333962 1.35936e-24)
(0.973327 -0.00272114 3.79773e-25)
(-0.173937 0.176971 1.92948e-21)
(-0.209755 0.15024 1.35016e-19)
(-0.228776 0.131854 5.65495e-21)
(-0.248687 0.113024 -2.8496e-19)
(-0.264184 0.0955541 2.90214e-19)
(-0.277118 0.0790741 -1.50926e-19)
(-0.286849 0.0641102 -2.40321e-21)
(-0.293765 0.05035 -1.62759e-19)
(-0.297987 0.0379479 3.20032e-19)
(-0.299697 0.026664 -1.62204e-19)
(-0.29901 0.0163046 1.58581e-19)
(-0.295758 0.0066449 -1.61216e-19)
(-0.290948 -0.00284424 -1.5762e-19)
(-0.283881 -0.012541 3.18939e-19)
(-0.274356 -0.023002 -1.56324e-19)
(-0.262214 -0.0347241 0)
(-0.247086 -0.0481785 0)
(-0.228556 -0.063775 1.44864e-19)
(-0.205758 -0.0821504 -1.42721e-19)
(-0.178311 -0.102711 0)
(-0.145569 -0.125519 0)
(-0.107154 -0.150014 0)
(-0.0628987 -0.175107 0)
(-0.0143424 -0.199148 1.52332e-21)
(0.0399016 -0.21918 0)
(0.100496 -0.234641 -6.27139e-20)
(0.162697 -0.244913 1.24963e-20)
(0.224559 -0.248182 1.23288e-20)
(0.286449 -0.246335 3.824e-20)
(0.346638 -0.240083 1.94623e-20)
(0.404097 -0.230102 -1.92618e-20)
(0.458264 -0.217455 -2.99101e-21)
(0.508804 -0.203108 2.99332e-21)
(0.555582 -0.187909 -1.17893e-21)
(0.598583 -0.17253 1.17984e-21)
(0.637878 -0.157464 -7.5428e-23)
(0.673608 -0.143051 0)
(0.705957 -0.129506 0)
(0.735163 -0.116972 -2.74664e-22)
(0.761491 -0.105528 0)
(0.785171 -0.0951552 4.23966e-21)
(0.806404 -0.0857907 -3.27241e-22)
(0.825404 -0.0773664 -2.33116e-22)
(0.842385 -0.0698143 -7.78078e-21)
(0.857558 -0.0630642 3.47942e-21)
(0.871112 -0.0570437 0)
(0.883224 -0.0516814 -2.97652e-21)
(0.894052 -0.0469076 2.79991e-21)
(0.90374 -0.0426587 -2.38512e-21)
(0.912416 -0.0388746 2.31375e-21)
(0.920195 -0.0355026 0)
(0.927182 -0.0324932 -5.51794e-23)
(0.933463 -0.0298049 -5.33317e-23)
(0.939123 -0.027397 0)
(0.944228 -0.0252382 0)
(0.948846 -0.0232951 -3.5748e-23)
(0.953024 -0.0215445 0)
(0.956819 -0.0199591 2.85531e-23)
(0.960261 -0.0185222 4.00794e-22)
(0.963402 -0.0172115 -4.01097e-22)
(0.966254 -0.0160145 0)
(0.968867 -0.0149149 3.01707e-22)
(0.971241 -0.0139011 -2.83859e-22)
(0.97342 -0.0129646 -1.4322e-23)
(0.975401 -0.0120903 0)
(0.977215 -0.0112813 0)
(0.97887 -0.0105141 -2.078e-23)
(0.980367 -0.00980598 0)
(0.981749 -0.00912274 0)
(0.98296 -0.00849282 4.68442e-23)
(0.984118 -0.00787876 -1.28773e-23)
(0.985062 -0.0073019 -5.32648e-23)
(0.986034 -0.00675116 3.10178e-23)
(0.986724 -0.00619337 -3.5682e-23)
(0.98753 -0.00571338 9.24129e-24)
(0.98798 -0.00512908 -1.5496e-23)
(0.988604 -0.00474807 0)
(0.988851 -0.00408649 0)
(0.989229 -0.00385888 -1.61383e-24)
(0.989362 -0.00306952 5.97476e-25)
(-0.0144791 0.199343 2.40631e-19)
(-0.0311987 0.174029 2.02617e-21)
(-0.0402334 0.152821 1.41129e-19)
(-0.0500093 0.131932 -1.3445e-19)
(-0.0588082 0.111574 2.33162e-21)
(-0.0659703 0.092286 -1.50501e-19)
(-0.0713318 0.0742472 1.55337e-19)
(-0.0747866 0.0575424 -1.58595e-19)
(-0.0762811 0.0423777 1.66219e-19)
(-0.0757836 0.0286312 2.55458e-21)
(-0.0732935 0.0160617 2.56673e-21)
(-0.0684409 0.00423928 0)
(-0.0622457 -0.00731512 2.58212e-21)
(-0.0538937 -0.0189113 -1.62549e-19)
(-0.0432338 -0.0312584 1.65164e-19)
(-0.0300781 -0.0450302 0)
(-0.0140617 -0.0608634 1.54233e-19)
(0.00465285 -0.0793797 -1.54292e-19)
(0.0274624 -0.100545 -1.46124e-19)
(0.055849 -0.124676 1.43899e-19)
(0.0891947 -0.151902 4.20185e-21)
(0.127502 -0.181452 0)
(0.170992 -0.211945 0)
(0.218584 -0.241537 -1.54445e-21)
(0.268583 -0.265424 2.8389e-21)
(0.321701 -0.283825 0)
(0.375772 -0.296242 0)
(0.428899 -0.301311 8.95717e-22)
(0.4804 -0.299337 3.32444e-20)
(0.529366 -0.291457 -3.23001e-20)
(0.57527 -0.279022 0)
(0.617951 -0.2634 4.60562e-22)
(0.657384 -0.245796 0)
(0.69362 -0.227212 1.30135e-22)
(0.726759 -0.20844 0)
(0.75693 -0.19006 7.62055e-23)
(0.784288 -0.172475 0)
(0.809 -0.155942 -1.66496e-22)
(0.831247 -0.140605 7.5289e-21)
(0.851243 -0.126557 -7.6126e-21)
(0.869203 -0.113826 1.29617e-22)
(0.88529 -0.102357 3.45824e-21)
(0.899651 -0.0920597 -7.17626e-21)
(0.912438 -0.0828381 3.50685e-21)
(0.923803 -0.0746002 1.06093e-22)
(0.933892 -0.0672566 2.68277e-21)
(0.942839 -0.0607215 -2.76617e-21)
(0.950767 -0.0549109 0)
(0.957785 -0.0497479 -1.34182e-22)
(0.963994 -0.045159 0)
(0.969484 -0.0410794 0)
(0.974337 -0.0374477 5.54854e-23)
(0.978622 -0.0342124 0)
(0.982406 -0.031323 1.30179e-21)
(0.985745 -0.0287403 -1.30237e-21)
(0.988691 -0.0264234 3.59025e-23)
(0.991288 -0.0243428 0)
(0.993576 -0.0224656 -2.8659e-23)
(0.99559 -0.0207696 0)
(0.99736 -0.0192294 0)
(0.998914 -0.0178266 -3.32693e-22)
(1.00027 -0.0165447 2.77582e-22)
(1.00146 -0.0153645 -2.94845e-23)
(1.00249 -0.0142814 1.96684e-22)
(1.00339 -0.0132694 -4.17488e-22)
(1.00414 -0.0123411 1.64789e-22)
(1.00482 -0.0114568 -1.3609e-22)
(1.00532 -0.0106504 1.46224e-22)
(1.00583 -0.00986558 0)
(1.00611 -0.0091531 0)
(1.00649 -0.00845055 6.11866e-24)
(1.00656 -0.00780072 2.86302e-23)
(1.00686 -0.00717371 -6.69078e-23)
(1.00671 -0.00654379 2.58643e-23)
(1.00697 -0.00600061 3.33829e-24)
(1.0066 -0.0053328 4.38903e-24)
(1.00681 -0.00490258 -9.39293e-24)
(1.00623 -0.00413428 0)
(1.00637 -0.00387621 -7.94933e-25)
(1.00558 -0.00295679 -4.91415e-25)
(0.131648 0.206457 0)
(0.135919 0.186431 -4.20492e-21)
(0.138815 0.166683 2.86122e-19)
(0.139105 0.14555 -2.90697e-19)
(0.137767 0.124482 0)
(0.135816 0.103945 3.11505e-19)
(0.134036 0.0840284 1.20799e-20)
(0.133029 0.0651695 -3.2348e-19)
(0.133095 0.0477299 -1.03449e-20)
(0.134447 0.0317409 -3.35754e-19)
(0.137227 0.0170005 3.41003e-19)
(0.14214 0.00297803 -3.31954e-19)
(0.148564 -0.0106196 6.68049e-19)
(0.157155 -0.0242179 -3.36085e-19)
(0.168229 -0.0385539 -5.17694e-21)
(0.182113 -0.0543905 5.13351e-21)
(0.199279 -0.0725562 0)
(0.219952 -0.0938251 0)
(0.244478 -0.117515 -1.491e-19)
(0.274216 -0.144724 1.53688e-19)
(0.309148 -0.17571 8.74029e-23)
(0.348799 -0.209251 -1.24458e-19)
(0.392544 -0.243568 1.2445e-19)
(0.438977 -0.276295 0)
(0.486426 -0.30445 -2.88752e-21)
(0.533916 -0.325871 0)
(0.579835 -0.339436 2.21704e-21)
(0.622946 -0.344484 -4.97291e-20)
(0.662817 -0.341622 4.98977e-20)
(0.699338 -0.332148 -9.74546e-22)
(0.732616 -0.317639 0)
(0.762924 -0.299646 1.44153e-22)
(0.790545 -0.27951 -8.12174e-21)
(0.815711 -0.258324 4.22729e-21)
(0.838609 -0.236947 4.17822e-21)
(0.859403 -0.216012 1.65422e-21)
(0.878238 -0.195963 -1.65443e-21)
(0.895251 -0.177088 4.75151e-21)
(0.910572 -0.159554 -4.67072e-21)
(0.924336 -0.143443 6.37516e-23)
(0.936704 -0.128802 1.58703e-22)
(0.947818 -0.115609 2.13345e-22)
(0.957775 -0.103779 -6.05134e-21)
(0.966661 -0.0931976 5.72695e-21)
(0.974561 -0.0837498 0)
(0.981565 -0.0753266 2.86256e-23)
(0.987756 -0.0678272 0)
(0.993216 -0.0611559 -2.23914e-21)
(0.998017 -0.0552265 2.13255e-21)
(1.00223 -0.0499571 0)
(1.00591 -0.0452752 -9.67549e-23)
(1.00911 -0.0411115 0)
(1.01189 -0.0374072 0)
(1.0143 -0.0341052 -1.24132e-21)
(1.01636 -0.0311592 1.10536e-21)
(1.01812 -0.028523 -9.98677e-22)
(1.01962 -0.0261611 1.83464e-21)
(1.02088 -0.024037 -1.35873e-22)
(1.02192 -0.0221225 -1.46596e-21)
(1.02278 -0.0203911 6.71969e-22)
(1.02347 -0.0188172 3.72655e-23)
(1.02401 -0.0173867 2.94771e-23)
(1.02443 -0.0160706 2.95642e-23)
(1.0247 -0.0148717 2.63077e-23)
(1.02492 -0.0137493 2.59755e-24)
(1.02497 -0.0127302 2.07862e-23)
(1.02503 -0.0117542 0)
(1.02488 -0.0108761 -1.45366e-23)
(1.02484 -0.0100141 -1.033e-22)
(1.02451 -0.0092442 1.82917e-22)
(1.02441 -0.00847766 -1.12846e-23)
(1.0239 -0.00777889 -7.85856e-23)
(1.02378 -0.00710169 0)
(1.02309 -0.0064221 -1.81358e-23)
(1.02301 -0.00584256 1.99429e-23)
(1.02211 -0.00511365 4.98821e-24)
(1.02208 -0.00465966 0)
(1.02096 -0.0038064 2.49499e-24)
(1.02097 -0.00353496 1.19941e-24)
(1.0196 -0.00250885 5.67044e-25)
(0.257145 0.196245 2.39623e-19)
(0.277703 0.186408 -2.71449e-19)
(0.293275 0.171744 2.75433e-19)
(0.304563 0.153436 3.01438e-19)
(0.312363 0.134022 -3.01273e-19)
(0.317188 0.113864 3.22009e-19)
(0.320158 0.0932998 -6.56858e-19)
(0.322304 0.0731806 6.65883e-19)
(0.324294 0.0541407 -6.66257e-19)
(0.326624 0.0363131 3.40665e-19)
(0.329654 0.0198193 -5.40106e-21)
(0.334512 0.00385748 -5.41405e-21)
(0.341061 -0.0119996 0)
(0.349889 -0.0277445 0)
(0.361628 -0.0442 0)
(0.376731 -0.0621631 -1.05414e-20)
(0.395714 -0.0825013 0)
(0.418867 -0.106022 3.19749e-19)
(0.446542 -0.132986 -3.19575e-19)
(0.479375 -0.163635 -4.70238e-21)
(0.517121 -0.197826 -4.46823e-21)
(0.558875 -0.234393 0)
(0.603296 -0.271449 0)
(0.648447 -0.306286 0)
(0.692071 -0.335714 0)
(0.732511 -0.357667 0)
(0.76877 -0.371004 -2.26103e-21)
(0.800476 -0.375423 -5.80797e-20)
(0.827842 -0.37155 5.61986e-20)
(0.851381 -0.360767 0)
(0.871753 -0.344798 0)
(0.889639 -0.325267 -6.22072e-22)
(0.905568 -0.303532 -9.90247e-22)
(0.919886 -0.280702 8.26428e-21)
(0.932823 -0.257651 -3.75658e-21)
(0.944541 -0.235038 -4.65359e-21)
(0.955166 -0.213333 -5.35033e-22)
(0.964796 -0.192851 6.23363e-22)
(0.973513 -0.173783 0)
(0.981385 -0.156217 1.47528e-22)
(0.988498 -0.140184 -4.50111e-21)
(0.99495 -0.125684 4.33873e-21)
(1.00081 -0.112664 4.74454e-21)
(1.00611 -0.101025 -4.41396e-21)
(1.01088 -0.0906444 0)
(1.01514 -0.0813981 -3.94466e-21)
(1.01893 -0.0731686 4.09008e-21)
(1.02228 -0.0658461 2.29797e-22)
(1.02522 -0.0593333 1.17138e-22)
(1.02779 -0.0535402 -3.00565e-21)
(1.03001 -0.0483885 3.10208e-21)
(1.03193 -0.0438043 0)
(1.03356 -0.0397244 6.71139e-23)
(1.03493 -0.036088 7.21436e-23)
(1.03608 -0.0328446 6.48779e-23)
(1.03701 -0.0299453 5.8226e-23)
(1.03776 -0.0273498 -5.21672e-23)
(1.03833 -0.0250204 7.04737e-22)
(1.03876 -0.022923 -6.16104e-22)
(1.03903 -0.0210323 0)
(1.03921 -0.019315 0)
(1.03925 -0.0177617 -2.95859e-23)
(1.03923 -0.016332 0)
(1.03907 -0.0150387 -3.30669e-22)
(1.03891 -0.0138249 5.74829e-23)
(1.03858 -0.0127333 2.9379e-22)
(1.03832 -0.0116824 0)
(1.03783 -0.0107485 2.0577e-24)
(1.03751 -0.009825 -9.03668e-23)
(1.03686 -0.00901176 1.01667e-22)
(1.03653 -0.00819749 6.95938e-23)
(1.03573 -0.00746242 -6.08847e-23)
(1.03543 -0.00675355 3.25133e-23)
(1.03447 -0.00603601 -3.92499e-24)
(1.03424 -0.00544054 -1.66764e-23)
(1.03311 -0.0046615 1.47697e-23)
(1.03297 -0.00420436 -1.47641e-23)
(1.03165 -0.00327888 -4.59321e-24)
(1.03159 -0.00300963 0)
(1.03002 -0.00188619 3.98365e-25)
(0.373549 0.170854 3.98171e-21)
(0.398205 0.172492 -2.81957e-19)
(0.419997 0.163658 -1.65931e-20)
(0.439793 0.150691 -1.13017e-20)
(0.456319 0.136373 -1.23645e-20)
(0.46872 0.120002 3.19177e-19)
(0.478055 0.101876 0)
(0.485448 0.0829647 3.45969e-19)
(0.491566 0.0638697 -3.48385e-19)
(0.497423 0.0450371 0)
(0.502906 0.0263186 3.55049e-19)
(0.509629 0.00828803 -7.10566e-19)
(0.518344 -0.00948438 3.55517e-19)
(0.529669 -0.0278248 0)
(0.544137 -0.0473178 0)
(0.562354 -0.0683654 5.4371e-21)
(0.584836 -0.0917401 0)
(0.61187 -0.118152 3.30572e-19)
(0.643503 -0.147882 -1.02496e-20)
(0.679615 -0.181045 -3.19562e-19)
(0.719513 -0.217218 2.9103e-19)
(0.761839 -0.255236 -2.90686e-19)
(0.804604 -0.293128 0)
(0.845458 -0.328142 0)
(0.882101 -0.357414 0)
(0.913033 -0.378935 0)
(0.937874 -0.391657 0)
(0.957089 -0.395499 0)
(0.971596 -0.391163 0)
(0.982398 -0.379952 0)
(0.990483 -0.363533 -6.1668e-22)
(0.996744 -0.343458 -2.45841e-20)
(1.00183 -0.321036 2.51437e-20)
(1.00611 -0.297365 0)
(1.00985 -0.273342 8.68105e-21)
(1.01319 -0.249661 -1.38739e-20)
(1.01624 -0.226835 5.25687e-21)
(1.01908 -0.205219 5.3441e-23)
(1.02176 -0.185033 -2.4345e-23)
(1.02429 -0.166388 -1.64501e-21)
(1.02669 -0.149309 1.64354e-21)
(1.02898 -0.133788 2.81887e-21)
(1.03118 -0.119781 -2.81633e-21)
(1.03329 -0.10722 0)
(1.0353 -0.0960132 3.90828e-23)
(1.03718 -0.0860435 -3.15434e-21)
(1.03892 -0.0771873 3.15101e-21)
(1.04048 -0.0693233 -1.41789e-22)
(1.04189 -0.0623404 2.66551e-21)
(1.04311 -0.0561362 -5.02726e-21)
(1.04418 -0.0506219 2.40052e-21)
(1.04507 -0.0457164 2.92022e-23)
(1.04582 -0.0413501 -9.4503e-23)
(1.04642 -0.0374586 2.44182e-23)
(1.04688 -0.033987 0)
(1.04722 -0.0308849 6.86342e-22)
(1.04745 -0.0281076 -1.30237e-21)
(1.04756 -0.0256178 6.3236e-22)
(1.04758 -0.023376 -1.45914e-23)
(1.0475 -0.0213597 1.30663e-23)
(1.04737 -0.0195277 -1.16826e-23)
(1.04713 -0.0178769 1.04282e-23)
(1.04687 -0.0163556 3.13458e-22)
(1.04649 -0.0149875 -3.13169e-22)
(1.04615 -0.0136996 -2.47778e-22)
(1.04564 -0.012551 2.76506e-23)
(1.04524 -0.0114393 2.19698e-22)
(1.0446 -0.0104617 -6.85158e-23)
(1.04419 -0.00948958 8.15377e-23)
(1.04343 -0.00864199 -6.27893e-23)
(1.04303 -0.00779295 6.32133e-23)
(1.04214 -0.00702854 -4.7652e-23)
(1.0418 -0.00630233 8.77536e-23)
(1.04079 -0.00555331 -4.35185e-23)
(1.04053 -0.00495988 -1.52814e-23)
(1.03939 -0.00413542 2.7497e-23)
(1.03923 -0.00369336 -1.68131e-23)
(1.03794 -0.00270041 7.53015e-24)
(1.03788 -0.00244653 -5.13603e-25)
(1.03638 -0.0012298 1.17438e-25)
(0.541086 0.146508 2.47306e-19)
(0.545901 0.156103 0)
(0.556593 0.150828 2.28484e-21)
(0.57343 0.14138 -2.39697e-21)
(0.591128 0.129375 -3.21374e-19)
(0.60672 0.114293 6.54755e-19)
(0.620511 0.0972826 1.04188e-20)
(0.632948 0.0793735 7.30105e-21)
(0.644302 0.0609055 -3.49916e-19)
(0.655276 0.042176 0)
(0.666127 0.0234016 0)
(0.678617 0.00456474 1.41907e-21)
(0.692694 -0.0143274 3.66873e-19)
(0.708674 -0.0345673 -3.66187e-19)
(0.728053 -0.0561432 0)
(0.751209 -0.0794468 1.39764e-21)
(0.778247 -0.10515 0)
(0.809155 -0.133772 0)
(0.84356 -0.16547 0)
(0.880708 -0.200086 -3.18309e-19)
(0.919288 -0.236941 6.20317e-19)
(0.957564 -0.274809 -3.0204e-19)
(0.993516 -0.311748 0)
(1.0252 -0.345348 2.40448e-19)
(1.05093 -0.373433 -2.40014e-19)
(1.06979 -0.394259 0)
(1.0821 -0.406792 0)
(1.08897 -0.410888 -6.0994e-22)
(1.0917 -0.407048 1.1789e-19)
(1.09136 -0.396321 -1.17706e-19)
(1.08888 -0.380214 6.31862e-22)
(1.08512 -0.360158 0)
(1.08075 -0.337429 2.40352e-20)
(1.0762 -0.313167 -2.39994e-20)
(1.07177 -0.288334 0)
(1.06763 -0.263695 9.64378e-21)
(1.06392 -0.239829 -9.61222e-21)
(1.06072 -0.217142 -4.24258e-21)
(1.05804 -0.19589 4.24296e-21)
(1.05586 -0.176211 -9.17023e-22)
(1.05415 -0.15815 9.50513e-22)
(1.05286 -0.141686 0)
(1.05195 -0.126773 1.47475e-24)
(1.05133 -0.113352 0)
(1.05097 -0.101336 1.85382e-21)
(1.0508 -0.090618 1.38055e-22)
(1.05078 -0.0810835 -2.03346e-21)
(1.05084 -0.0726202 -1.93684e-21)
(1.05095 -0.0651171 1.93567e-21)
(1.05108 -0.0584657 -3.44391e-23)
(1.05119 -0.0525678 1.71401e-21)
(1.05128 -0.0473334 -1.60193e-22)
(1.05133 -0.0426839 -1.53923e-21)
(1.05133 -0.0385486 -2.46579e-23)
(1.05128 -0.0348653 8.20352e-24)
(1.05117 -0.0315802 1.08043e-21)
(1.05102 -0.0286424 -1.08556e-21)
(1.0508 -0.0260142 -1.63807e-23)
(1.05056 -0.0236494 9.14032e-24)
(1.05024 -0.021528 -3.65774e-22)
(1.04991 -0.0196007 3.63833e-22)
(1.0495 -0.0178706 -1.04789e-23)
(1.04911 -0.0162745 -3.5716e-24)
(1.04862 -0.0148469 0)
(1.04819 -0.0134993 0)
(1.04761 -0.012306 0)
(1.04717 -0.0111463 1.5776e-22)
(1.0465 -0.0101345 -1.60431e-22)
(1.04608 -0.00912529 4.53873e-24)
(1.04531 -0.00825005 -3.9865e-24)
(1.04493 -0.00737791 4.85116e-23)
(1.04407 -0.00658837 -4.93206e-23)
(1.04375 -0.00585807 -1.00445e-24)
(1.04281 -0.00508076 -2.90671e-23)
(1.04258 -0.00450461 4.02937e-23)
(1.04155 -0.00363855 -1.19655e-23)
(1.04142 -0.00322782 7.1144e-24)
(1.0403 -0.00217015 -7.941e-24)
(1.04025 -0.00194254 1.25155e-24)
(1.03898 -0.000636215 -6.10528e-25)
(0.810591 0.137777 0)
(0.79419 0.143764 0)
(0.785388 0.14414 0)
(0.786873 0.143227 0)
(0.793366 0.137844 -1.2663e-21)
(0.801865 0.127646 -1.3165e-21)