/*--------------------------------*- C++ -*----------------------------------*\
| =========                 |                                                 |
| \\      /  F ield         | OpenFOAM: The Open Source CFD Toolbox           |
|  \\    /   O peration     | Version:  4.1                                   |
|   \\  /    A nd           | Web:      www.OpenFOAM.org                      |
|    \\/     M anipulation  |                                                 |
\*---------------------------------------------------------------------------*/
FoamFile
{
    version     2.0;
    format      ascii;
    class       volVectorField;
    location    "10";
    object      U;
}
// * * * * * * * * * * * * * * * * * * * * * * * * * * * * * * * * * * * * * //

dimensions      [0 1 -1 0 0 0 0];

internalField   nonuniform List<vector> 
2000
(
(-0.0150978 0.0164801 5.69814e-20)
(0.00819307 0.0182921 0)
(0.0742882 0.0121649 9.37636e-20)
(0.170337 0.00360925 4.01504e-20)
(0.287623 -0.00390466 -7.63175e-20)
(0.418747 -0.00838721 -9.59014e-20)
(0.556922 -0.00897323 3.01211e-20)
(0.696409 -0.00491575 0)
(0.833193 0.00556707 -2.26926e-20)
(0.954653 0.0144033 0)
(-0.00820147 0.0104897 -2.80636e-20)
(0.0379773 0.00414126 2.54227e-20)
(0.133846 -0.00395846 -1.06958e-19)
(0.262636 -0.010449 -1.37764e-19)
(0.412221 -0.013174 -3.3237e-21)
(0.572038 -0.0113 3.07602e-20)
(0.732729 -0.005237 -3.37498e-20)
(0.886852 0.00410896 -2.69353e-20)
(1.02945 0.0155572 2.26875e-20)
(1.14882 0.017243 3.7066e-20)
(0.00282364 0.00389883 3.23505e-20)
(0.0792634 -0.00985848 -3.39451e-20)
(0.210663 -0.0175598 5.38912e-20)
(0.375204 -0.0190139 -4.71131e-21)
(0.556182 -0.0141206 4.15065e-20)
(0.739307 -0.00374706 3.61784e-20)
(0.912965 0.0101902 3.13308e-20)
(1.06903 0.0255524 2.69304e-20)
(1.20298 0.0403519 2.27665e-20)
(1.30852 0.0469603 -1.86508e-20)
(0.0187978 -0.00271972 -1.86996e-21)
(0.1332 -0.0218105 -3.79411e-20)
(0.304709 -0.0256854 0)
(0.505244 -0.0186655 4.6828e-20)
(0.712781 -0.00366373 -4.97046e-20)
(0.909845 0.0162262 0)
(1.08427 0.0375576 0)
(1.22955 0.0574511 0)
(1.34396 0.0738567 -2.27653e-20)
(1.42692 0.0822582 3.15663e-20)
(0.0403745 -0.00857765 8.50013e-20)
(0.20006 -0.0294775 -3.30372e-22)
(0.414068 -0.0253539 3.6298e-20)
(0.647217 -0.00665843 2.59907e-20)
(0.872589 0.0197517 2.6353e-20)
(1.07159 0.0484345 2.17161e-20)
(1.23437 0.0749468 0)
(1.35861 0.0965275 1.34647e-20)
(1.44712 0.111886 -4.69449e-20)
(1.50455 0.119329 5.89941e-20)
(0.0678872 -0.0126777 -1.36254e-19)
(0.278928 -0.0304436 4.77489e-21)
(0.534782 -0.013952 -7.231e-20)
(0.793427 0.0185822 6.5686e-20)
(1.02525 0.0559138 -7.67261e-20)
(1.21403 0.090876 2.64855e-20)
(1.35531 0.119122 0)
(1.45279 0.138998 -1.34657e-20)
(1.5142 0.150601 9.95994e-21)
(1.5479 0.154491 1.66488e-20)
(0.101212 -0.0138751 0)
(0.367531 -0.0223901 0)
(0.66114 0.0103308 -3.88112e-20)
(0.935267 0.0571967 3.71354e-20)
(1.16162 0.103131 -2.59079e-20)
(1.3303 0.140685 2.47909e-20)
(1.44452 0.166987 2.92683e-20)
(1.51428 0.182314 -2.80482e-20)
(1.55128 0.188453 -1.20751e-20)
(1.56579 0.187702 6.4675e-21)
(0.139675 -0.0109926 2.84908e-20)
(0.462295 -0.00344645 0)
(0.786394 0.0481625 -1.85921e-20)
(1.06472 0.107964 7.2533e-20)
(1.27533 0.158838 -4.60982e-20)
(1.41779 0.194979 0)
(1.50365 0.216181 0)
(1.54819 0.225029 0)
(1.56543 0.224887 -7.19004e-21)
(1.56584 0.219115 6.90751e-21)
(0.182021 -0.00296922 -1.46812e-20)
(0.558637 0.0274746 -7.00208e-22)
(0.903713 0.0989516 -2.24172e-20)
(1.17551 0.168667 9.13632e-21)
(1.36312 0.22023 8.7357e-21)
(1.47714 0.251351 1.1782e-20)
(1.53657 0.26518 0)
(1.56021 0.266537 -1.36835e-21)
(1.56266 0.260009 -6.85306e-22)
(1.55348 0.249335 5.0275e-22)
(0.22647 0.0109801 0)
(0.651473 0.0704494 -1.37875e-20)
(1.00708 0.160974 0)
(1.26363 0.236536 -5.15882e-21)
(1.42443 0.284647 -5.05549e-21)
(1.51088 0.307915 -5.31055e-21)
(1.54771 0.312985 0)
(1.55526 0.306523 1.36867e-21)
(1.54743 0.29387 1.61782e-22)
(1.53223 0.278503 -1.6706e-21)
(-0.00401912 0.00363521 0)
(-0.0159314 0.00717438 -3.28544e-21)
(-0.0331068 0.00847233 0)
(-0.0500745 0.00860295 -4.60346e-21)
(-0.0650801 0.00815139 -1.47486e-21)
(-0.0778863 0.00747712 2.73606e-21)
(-0.0886762 0.00682066 -2.61287e-21)
(-0.0978413 0.00633599 2.4549e-21)
(-0.105881 0.00611836 2.95708e-23)
(-0.113429 0.00622041 2.17874e-21)
(-0.00493968 0.0106673 -8.78815e-21)
(-0.0172828 0.0209841 6.22472e-21)
(-0.0337567 0.0247535 -6.35513e-21)
(-0.0493641 0.0250737 2.97421e-21)
(-0.0626014 0.0236607 1.43462e-20)
(-0.0733363 0.0215815 -5.45405e-21)
(-0.0818189 0.0195558 0)
(-0.0884817 0.0180583 -2.40099e-21)
(-0.093823 0.017402 -2.25808e-21)
(-0.098667 0.0177562 0)
(-0.00670802 0.0169544 5.852e-21)
(-0.0198192 0.0332243 0)
(-0.0348441 0.039082 1.93056e-20)
(-0.0477487 0.0393746 -2.47516e-20)
(-0.0574681 0.0368372 6.01574e-21)
(-0.0640762 0.033196 0)
(-0.0679615 0.0296375 0)
(-0.0696394 0.0269938 0)
(-0.0696038 0.0258833 1.81602e-20)
(-0.0690492 0.0266504 -1.7436e-20)
(-0.00912176 0.0220724 0)
(-0.023153 0.0430333 -1.41691e-20)
(-0.0359192 0.0503426 2.71631e-20)
(-0.0447441 0.050257 -1.30043e-20)
(-0.0491753 0.046355 1.21233e-20)
(-0.0495873 0.0409242 -3.43133e-20)
(-0.0465722 0.0355817 5.65382e-22)
(-0.0407767 0.0315648 2.02993e-20)
(-0.0326844 0.0299693 1.83302e-20)
(-0.0239793 0.0314949 -2.6311e-20)
(-0.0119132 0.0257747 1.35884e-20)
(-0.0267011 0.0497857 -3.08104e-20)
(-0.0362196 0.0577024 -6.1447e-22)
(-0.0394366 0.056796 3.0511e-22)
(-0.0366648 0.0512677 1.21357e-20)
(-0.0286685 0.0438229 -3.63198e-20)
(-0.0163059 0.0364256 0)
(-0.000399035 0.0307394 -1.02715e-20)
(0.0185883 0.0285738 9.32661e-21)
(0.0382044 0.0313287 -3.60613e-20)
(-0.0147693 0.0279427 -7.43058e-22)
(-0.0296736 0.0530931 3.21942e-20)
(-0.034583 0.0606301 1.4996e-20)
(-0.0303076 0.0584427 1.58166e-20)
(-0.0180538 0.0511135 1.31139e-20)
(0.000933196 0.0415878 1.21522e-20)
(0.025448 0.0320251 0)
(0.054416 0.0244412 1.027e-20)
(0.0874312 0.0215657 2.72222e-20)
(0.121242 0.0261259 -9.50925e-21)
(-0.0173339 0.0285529 1.13648e-22)
(-0.0310518 0.0527816 1.80055e-20)
(-0.0293805 0.058904 0)
(-0.0151124 0.0550558 -2.82226e-20)
(0.00953849 0.0459812 2.88977e-20)
(0.0427357 0.0346861 0)
(0.0828055 0.0233194 0)
(0.128251 0.014009 0)
(0.178689 0.0104094 -1.84835e-20)
(0.230445 0.0173887 -3.73445e-20)
(-0.0191936 0.0276319 -1.89147e-20)
(-0.0295734 0.0488627 1.98494e-20)
(-0.0185023 0.0525996 3.75182e-20)
(0.00910228 0.0469031 2.24968e-21)
(0.0498978 0.0365051 3.08533e-20)
(0.101277 0.0243394 2.77392e-20)
(0.160878 0.0123539 2.47375e-20)
(0.226495 0.00242892 2.17457e-20)
(0.297536 -0.0012225 1.84791e-20)
(0.370823 0.00900658 -1.64649e-20)
(-0.0198496 0.0252444 -6.62482e-20)
(-0.0237191 0.041513 -1.98755e-20)
(0.000571378 0.0421005 -7.61779e-20)
(0.0458097 0.0346825 -3.44644e-20)
(0.107314 0.0238265 2.0491e-21)
(0.181395 0.0123287 -2.58091e-20)
(0.264614 0.00186572 2.74891e-20)
(0.353615 -0.00613868 -2.17403e-20)
(0.446962 -0.00751594 1.89451e-20)
(0.542787 0.00724931 -3.65126e-20)
(-0.0187164 0.02148 4.53216e-20)
(-0.0117518 0.0311014 0)
(0.0306072 0.0281841 4.07683e-20)
(0.0985817 0.0196084 -1.35209e-22)
(0.185798 0.0095788 2.34403e-21)
(0.28704 0.00065272 2.87966e-20)
(0.397361 -0.00577262 -8.1622e-20)
(0.511972 -0.00858725 0)
(0.627636 -0.00427028 -1.89392e-20)
(0.740462 0.0131026 0)
(-0.121124 0.00652934 0)
(-0.129431 0.00646792 -2.0126e-21)
(-0.137532 0.00615827 3.98114e-21)
(-0.145154 0.00573723 -1.7245e-21)
(-0.152228 0.00525191 0)
(-0.158688 0.00472071 1.76078e-21)
(-0.164476 0.00415886 -1.7681e-21)
(-0.169551 0.0035803 0)
(-0.173891 0.00299762 0)
(-0.17749 0.00242261 1.81587e-22)
(-0.180356 0.00186651 0)
(-0.182508 0.00133992 0)
(-0.183973 0.000853632 0)
(-0.184819 0.000418846 0)
(-0.18513 3.77006e-05 -1.85345e-22)
(-0.184977 -0.000282719 1.86136e-22)
(-0.184437 -0.000538012 0)
(-0.183546 -0.000728162 -3.64136e-23)
(-0.182299 -0.000858341 3.65703e-23)
(-0.181111 -0.000930281 0)
(-0.104525 0.0187077 0)
(-0.112046 0.0185279 5.17542e-22)
(-0.119326 0.0176288 0)
(-0.126049 0.0164105 7.34845e-21)
(-0.132254 0.0150007 -7.14319e-21)
(-0.1379 0.0134509 4.55744e-22)
(-0.142925 0.0118071 -3.34791e-21)
(-0.14729 0.0101123 6.94158e-21)
(-0.150977 0.00840494 -5.75844e-21)
(-0.153983 0.00672035 3.16672e-21)
(-0.156319 0.00509162 2.5265e-21)
(-0.158004 0.00355054 -4.51204e-21)
(-0.15906 0.00213048 2.29029e-21)
(-0.159564 0.000864001 1.11693e-21)
(-0.159598 -0.000243328 -8.80211e-22)
(-0.15922 -0.00117081 1.6874e-22)
(-0.158506 -0.00190564 1.31441e-22)
(-0.157495 -0.002447 1.44516e-22)
(-0.156165 -0.0028091 -1.45067e-22)
(-0.1549 -0.00300417 1.865e-23)
(-0.0714067 0.0283784 -5.45051e-22)
(-0.0774352 0.0280845 -5.19048e-22)
(-0.0831802 0.0266627 -5.20211e-22)
(-0.0881895 0.0247609 0)
(-0.0927164 0.0225501 -8.49336e-21)
(-0.0967782 0.0201015 6.62954e-21)
(-0.100312 0.0174923 0)
(-0.103283 0.0147982 -8.41032e-22)
(-0.105683 0.0120852 -3.90068e-22)
(-0.10752 0.0094121 4.92328e-21)
(-0.108809 0.00683412 -4.93535e-22)
(-0.109569 0.00440998 -5.82389e-21)
(-0.109813 0.00219607 -2.81322e-22)
(-0.109643 0.000188466 -2.39443e-22)
(-0.10913 -0.00155385 -2.1024e-22)
(-0.108308 -0.00299421 4.36548e-22)
(-0.107249 -0.00411735 -4.19993e-22)
(-0.105992 -0.00492363 -4.53411e-22)
(-0.104493 -0.00543984 -8.96692e-23)
(-0.103091 -0.0057076 3.5718e-24)
(-0.0214776 0.0342291 -1.70586e-20)
(-0.0255028 0.0339008 5.00163e-22)
(-0.0291998 0.0320312 1.10798e-21)
(-0.0318497 0.0295721 1.67398e-20)
(-0.0340163 0.026718 1.50014e-21)
(-0.0358267 0.0235347 4.70791e-22)
(-0.0372242 0.0201274 -1.33099e-20)
(-0.0381864 0.0166083 7.97382e-21)
(-0.0387274 0.0130708 6.74737e-21)
(-0.0388713 0.00959379 -6.24306e-21)
(-0.0386364 0.00625118 5.09923e-22)
(-0.0380368 0.00312942 6.32328e-21)
(-0.0371693 0.000301714 2.80436e-22)
(-0.0360911 -0.00225544 2.35115e-21)
(-0.0347815 -0.00445216 -1.64061e-21)
(-0.0333146 -0.00624228 -1.23747e-21)
(-0.0317599 -0.00760388 1.10012e-21)
(-0.0301471 -0.00853547 0)
(-0.028408 -0.00908054 1.65767e-22)
(-0.0268117 -0.00933708 1.82343e-23)
(0.0465323 0.0356671 3.57536e-20)
(0.0449253 0.035427 -1.68038e-20)
(0.0433825 0.0330609 1.80076e-20)
(0.0434587 0.0301131 0)
(0.0441425 0.0267622 -1.01373e-21)
(0.0450763 0.0230131 -1.54619e-20)
(0.0462929 0.0189951 -1.54033e-22)
(0.0477926 0.0148625 8.45324e-22)
(0.0495206 0.0107318 1.39164e-20)
(0.0514238 0.00670659 7.72197e-22)
(0.0534872 0.00288427 0)
(0.0557126 -0.000626713 -6.44305e-22)
(0.0579272 -0.00388981 0)
(0.0600955 -0.00677201 -5.0314e-22)
(0.0622916 -0.00919931 0)
(0.0644639 -0.0111349 0)
(0.0665588 -0.0125501 2.71589e-22)
(0.0685559 -0.0134369 -3.05073e-22)
(0.0705411 -0.0138508 2.67308e-22)
(0.0723344 -0.0139724 -8.04799e-23)
(0.135606 0.0330012 0)
(0.136306 0.032799 -1.17722e-21)
(0.136742 0.0296966 -3.58962e-20)
(0.139657 0.0262417 3.48135e-20)
(0.143422 0.0224932 -1.07099e-21)
(0.14732 0.0183139 0)
(0.151343 0.0138659 -1.51063e-20)
(0.155458 0.00936712 2.84274e-20)
(0.159574 0.00493987 -1.51105e-20)
(0.163619 0.000732966 -8.05105e-22)
(0.167588 -0.00320348 -7.39566e-22)
(0.171266 -0.00691773 -6.69773e-22)
(0.174624 -0.010324 0)
(0.177827 -0.0132424 3.29611e-21)
(0.180817 -0.0156433 -7.42881e-21)
(0.183563 -0.0174977 3.17647e-21)
(0.186056 -0.0187713 -2.74952e-22)
(0.188302 -0.0194453 -1.92943e-22)
(0.190398 -0.0195714 7.21634e-23)
(0.192276 -0.0194092 -7.84695e-23)
(0.250009 0.027413 3.67882e-20)
(0.252541 0.0267907 0)
(0.254673 0.0224656 -1.19114e-21)
(0.260352 0.0184174 2.25001e-21)
(0.267096 0.0143404 2.16377e-21)
(0.273747 0.00986452 1.03931e-21)
(0.280302 0.00521593 9.84768e-22)
(0.286685 0.000723992 -1.34788e-20)
(0.292808 -0.00356465 1.61253e-20)
(0.298515 -0.00769164 1.40058e-20)
(0.303621 -0.011605 -1.16472e-20)
(0.30817 -0.0152263 1.33211e-21)
(0.312323 -0.0183501 -4.43209e-21)
(0.316045 -0.020974 1.14042e-21)
(0.319318 -0.0230817 4.66088e-21)
(0.322167 -0.0246328 3.50982e-22)
(0.32463 -0.0255894 -3.8189e-22)
(0.326744 -0.0259238 5.12114e-22)
(0.328611 -0.0256642 7.0716e-22)
(0.330259 -0.0250827 3.53849e-23)
(0.3938 0.0215138 0)
(0.398119 0.018807 -4.03378e-20)
(0.402223 0.0125021 4.14526e-20)
(0.410522 0.00784218 -1.13975e-21)
(0.419578 0.00358774 -2.18342e-21)
(0.427992 -0.000846722 -1.0422e-21)
(0.436004 -0.00516561 -1.96658e-21)
(0.443455 -0.00937788 0)
(0.450051 -0.0134428 -8.68522e-22)
(0.455824 -0.0172936 -8.03596e-22)
(0.460932 -0.0207999 -7.24986e-22)
(0.465388 -0.0238448 -1.31398e-21)
(0.46921 -0.0264347 0)
(0.472427 -0.0285638 0)
(0.475089 -0.0301972 -4.27168e-22)
(0.477253 -0.0312968 -3.11814e-21)
(0.47899 -0.0318336 2.15959e-21)
(0.48036 -0.0317783 -1.81343e-22)
(0.481488 -0.0311452 -3.51632e-22)
(0.482365 -0.0300913 1.09572e-22)
(0.569295 0.018263 3.77582e-20)
(0.577807 0.00990714 0)
(0.58529 0.00169237 0)
(0.595296 -0.0028444 -3.57613e-20)
(0.604495 -0.00695103 2.6508e-21)
(0.612133 -0.011183 6.6175e-20)
(0.618569 -0.0151555 -3.11445e-20)
(0.624005 -0.0188901 0)
(0.628698 -0.0223188 0)
(0.632632 -0.0253948 0)
(0.635845 -0.0281345 3.71438e-22)
(0.638398 -0.0305234 9.60177e-22)
(0.640355 -0.0325342 8.44607e-21)
(0.64178 -0.0341289 -8.16717e-21)
(0.642741 -0.0352703 2.96786e-21)
(0.643299 -0.0359248 -2.61906e-21)
(0.64354 -0.0360742 0)
(0.643511 -0.0356867 9.13929e-23)
(0.643412 -0.0348116 1.02937e-22)
(0.642911 -0.0333621 0)
(0.78559 0.0103567 -6.70441e-22)
(0.801818 -0.00333122 -3.99537e-20)
(0.810377 -0.00878779 3.97426e-20)
(0.815615 -0.011092 0)
(0.817966 -0.0139274 3.28191e-20)
(0.819055 -0.0169688 -6.3355e-20)
(0.819657 -0.0198737 3.05441e-20)
(0.819798 -0.022612 0)
(0.819559 -0.0252626 1.23963e-20)
(0.819011 -0.0277929 -2.3672e-20)
(0.818203 -0.0301316 1.16253e-20)
(0.817164 -0.0322075 -3.09119e-22)
(0.815924 -0.0339591 0)
(0.814509 -0.0353343 -7.02353e-21)
(0.812958 -0.0362941 9.54033e-21)
(0.811297 -0.0368008 -2.77792e-21)
(0.809612 -0.0368485 -1.61757e-21)
(0.807843 -0.0363863 1.16458e-21)
(0.806397 -0.0355526 5.2246e-22)
(0.804199 -0.0339516 0)
(1.06813 0.0129859 0)
(1.04925 0.00346319 0)
(1.03755 -0.00115311 0)
(1.02631 -0.00450144 0)
(1.0165 -0.00787008 0)
(1.00869 -0.0111532 0)
(1.00236 -0.0143253 0)
(0.996913 -0.0173771 0)
(0.992016 -0.0202969 0)
(0.987514 -0.0230459 0)
(0.983297 -0.0255715 0)
(0.979278 -0.0278228 0)
(0.975404 -0.0297558 0)
(0.971636 -0.03133 0)
(0.967973 -0.0325174 0)
(0.964381 -0.0332794 0)
(0.960973 -0.033629 0)
(0.957502 -0.0334794 0)
(0.954759 -0.0330553 0)
(0.950519 -0.0317431 0)
(1.24383 0.0313355 0)
(1.22833 0.0249472 0)
(1.21597 0.0173725 0)
(1.20234 0.0103892 0)
(1.1891 0.00436222 0)
(1.17746 -0.000879585 0)
(1.16729 -0.00554076 0)
(1.15818 -0.009712 0)
(1.14989 -0.0134549 0)
(1.14226 -0.0168054 0)
(1.13516 -0.0197749 0)
(1.12849 -0.0223606 0)
(1.12218 -0.0245547 0)
(1.11614 -0.0263424 0)
(1.11037 -0.0277196 0)
(1.10477 -0.0286601 0)
(1.09954 -0.0292024 0)
(1.09417 -0.029248 0)
(1.09 -0.0290684 0)
(1.08339 -0.0280092 0)
(1.37273 0.0443282 0)
(1.35976 0.0387464 0)
(1.34865 0.0312754 0)
(1.33678 0.0235732 0)
(1.32474 0.0166334 0)
(1.31336 0.0104704 0)
(1.30276 0.00492365 0)
(1.29282 -6.23991e-05 0)
(1.28343 -0.00451903 0)
(1.27455 -0.00847267 0)
(1.26613 -0.0119471 0)
(1.2581 -0.0149561 0)
(1.25044 -0.0175088 0)
(1.24307 -0.0196058 0)
(1.23602 -0.0212596 0)
(1.22916 -0.0224561 0)
(1.22277 -0.0232482 0)
(1.2161 -0.02355 0)
(1.21106 -0.0236165 0)
(1.20274 -0.0229186 0)
(1.46326 0.0566289 0)
(1.45292 0.0498677 0)
(1.44309 0.0422978 0)
(1.43331 0.034501 0)
(1.42356 0.0272962 0)
(1.41402 0.0208016 0)
(1.40476 0.0149036 0)
(1.39577 0.00953667 0)
(1.38702 0.00469442 0)
(1.37852 0.000371631 0)
(1.37027 -0.00344738 0)
(1.36226 -0.00677515 0)
(1.35448 -0.00962415 0)
(1.3469 -0.0120001 0)
(1.33959 -0.0139198 0)
(1.33238 -0.0153792 0)
(1.32567 -0.0164257 0)
(1.3185 -0.0170096 0)
(1.31323 -0.0173081 0)
(1.30412 -0.0170082 0)
(1.51945 0.0670781 0)
(1.51255 0.058913 0)
(1.50475 0.0509656 0)
(1.49724 0.0431244 0)
(1.48997 0.0358339 0)
(1.48273 0.0292211 0)
(1.47548 0.0232087 0)
(1.46824 0.0177281 0)
(1.46102 0.0127623 0)
(1.45384 0.0083046 0)
(1.44672 0.00434387 0)
(1.43966 0.000868376 0)
(1.4327 -0.00213436 0)
(1.4258 -0.00467273 0)
(1.41907 -0.00676108 0)
(1.41232 -0.0084063 0)
(1.40604 -0.00963598 0)
(1.39915 -0.0104493 0)
(1.39421 -0.0109168 0)
(1.38526 -0.0109526 0)
(1.54781 0.0739555 0)
(1.54468 0.0649899 0)
(1.53954 0.0568228 0)
(1.53449 0.0490882 0)
(1.52971 0.0419119 0)
(1.52486 0.0353724 0)
(1.5198 0.0294252 0)
(1.51456 0.0240107 0)
(1.50919 0.0191001 0)
(1.50372 0.0146803 0)
(1.49817 0.0107391 0)
(1.49255 0.00726332 0)
(1.48691 0.00424126 0)
(1.48121 0.00166135 0)
(1.47559 -0.000485838 0)
(1.46984 -0.00221897 0)
(1.46448 -0.00354083 0)
(1.45844 -0.0044983 0)
(1.4542 -0.00506213 0)
(1.44618 -0.00532786 0)
(1.55641 0.0770563 0)
(1.55665 0.0679726 0)
(1.55423 0.0598767 0)
(1.55158 0.0524243 0)
(1.54913 0.0455453 0)
(1.54651 0.0392521 0)
(1.54355 0.0335197 0)
(1.54028 0.0283046 0)
(1.53677 0.0235752 0)
(1.53305 0.0193131 0)
(1.52916 0.0155046 0)
(1.52511 0.0121356 0)
(1.52094 0.00919549 0)
(1.51665 0.0066693 0)
(1.51234 0.00455275 0)
(1.50784 0.00281747 0)
(1.50364 0.00148175 0)
(1.49876 0.000464238 0)
(1.49539 -0.00013584 0)
(1.48877 -0.000524566 0)
(1.55268 0.0770096 0)
(1.55549 0.0682837 0)
(1.55543 0.060511 0)
(1.55489 0.053474 0)
(1.55441 0.0470137 0)
(1.5537 0.0410874 0)
(1.55256 0.0356772 0)
(1.55103 0.0307549 0)
(1.54919 0.0262923 0)
(1.54708 0.0222686 0)
(1.54473 0.0186691 0)
(1.54216 0.0154794 0)
(1.53941 0.01269 0)
(1.53648 0.0102843 0)
(1.53348 0.00826175 0)
(1.53026 0.00658848 0)
(1.52723 0.00529578 0)
(1.5236 0.00428571 0)
(1.52113 0.00369176 0)
(1.51609 0.00326638 0)
(1.54228 0.0746065 0)
(1.54684 0.0665081 0)
(1.54863 0.0592363 0)
(1.54978 0.0527013 0)
(1.55085 0.0467256 0)
(1.55164 0.0412354 0)
(1.55197 0.0362129 0)
(1.55187 0.0316412 0)
(1.55141 0.0274976 0)
(1.55064 0.0237613 0)
(1.54959 0.0204173 0)
(1.54829 0.0174516 0)
(1.54678 0.0148556 0)
(1.54506 0.0126124 0)
(1.54323 0.0107238 0)
(1.54117 0.00915475 0)
(1.5392 0.00794133 0)
(1.53675 0.00698512 0)
(1.5351 0.0064237 0)
(1.53161 0.00601958 0)
(1.52901 0.0705611 0)
(1.53466 0.0632186 0)
(1.53781 0.0565541 0)
(1.54022 0.0505705 0)
(1.54246 0.045109 0)
(1.54437 0.0400867 0)
(1.54581 0.0354849 0)
(1.54679 0.0312937 0)
(1.54741 0.0274954 0)
(1.54769 0.0240712 0)
(1.54768 0.0210065 0)
(1.5474 0.0182878 0)
(1.54689 0.0159076 0)
(1.54617 0.0138498 0)
(1.54529 0.0121168 0)
(1.54422 0.0106759 0)
(1.54314 0.00956162 0)
(1.54172 0.00868605 0)
(1.54076 0.00817129 0)
(1.53863 0.00781963 0)
(1.51512 0.0654335 0)
(1.52141 0.058886 0)
(1.52551 0.0528786 0)
(1.52886 0.0474697 0)
(1.53193 0.0425324 0)
(1.53464 0.0379888 0)
(1.53689 0.0338205 0)
(1.53868 0.0300214 0)
(1.54009 0.0265786 0)
(1.54117 0.0234756 0)
(1.54195 0.0206991 0)
(1.54245 0.0182365 0)
(1.54272 0.016081 0)
(1.54276 0.014218 0)
(1.54265 0.0126497 0)
(1.54235 0.0113475 0)
(1.54198 0.010341 0)
(1.54139 0.00955779 0)
(1.54099 0.00909549 0)
(1.53999 0.0088071 0)
(1.5018 0.0596074 0)
(1.50844 0.0538458 0)
(1.51322 0.0485098 0)
(1.51724 0.0436839 0)
(1.52092 0.0392726 0)
(1.5242 0.0352092 0)
(1.52703 0.0314776 0)
(1.52941 0.0280741 0)
(1.53141 0.0249891 0)
(1.53307 0.022209 0)
(1.53443 0.0197221 0)
(1.53551 0.0175173 0)
(1.53636 0.0155881 0)
(1.53699 0.0139219 0)
(1.53745 0.0125201 0)
(1.53774 0.0113593 0)
(1.53792 0.0104623 0)
(1.53799 0.00977354 0)
(1.53802 0.00936461 0)
(1.53792 0.00913734 0)
(1.4896 0.0533187 0)
(1.49643 0.0483158 0)
(1.50169 0.0436479 0)
(1.50621 0.039406 0)
(1.51034 0.03552 0)
(1.51404 0.0319362 0)
(1.51729 0.0286415 0)
(1.5201 0.0256341 0)
(1.52253 0.0229072 0)
(1.52463 0.0204496 0)
(1.52641 0.0182516 0)
(1.52793 0.0163035 0)
(1.52921 0.0145996 0)
(1.53028 0.0131293 0)
(1.53116 0.011893 0)
(1.5319 0.0108722 0)
(1.5325 0.0100834 0)
(1.53305 0.00948624 0)
(1.53341 0.00912932 0)
(1.534 0.00895453 0)
(1.47875 0.0467078 0)
(1.48569 0.0424336 0)
(1.4913 0.0384232 0)
(1.49621 0.0347624 0)
(1.50067 0.0314003 0)
(1.5047 0.0282954 0)
(1.50826 0.025438 0)
(1.5114 0.0228273 0)
(1.51416 0.0204588 0)
(1.51657 0.0183238 0)
(1.51868 0.0164143 0)
(1.52052 0.0147222 0)
(1.52212 0.0132426 0)
(1.52352 0.0119668 0)
(1.52472 0.0108945 0)
(1.5258 0.0100114 0)
(1.5267 0.00932915 0)
(1.52763 0.00881901 0)
(1.52823 0.00851217 0)
(1.52935 0.00837944 0)
(1.46935 0.0398622 0)
(1.47635 0.0362889 0)
(1.48223 0.0329224 0)
(1.48744 0.0298379 0)
(1.49216 0.0269981 0)
(1.49644 0.0243717 0)
(1.50025 0.021952 0)
(1.50364 0.0197394 0)
(1.50665 0.0177307 0)
(1.50931 0.0159194 0)
(1.51167 0.0142991 0)
(1.51376 0.0128633 0)
(1.5156 0.011608 0)
(1.51724 0.0105262 0)
(1.51869 0.00961704 0)
(1.52002 0.00887009 0)
(1.52115 0.0082928 0)
(1.52236 0.00786564 0)
(1.52315 0.00760724 0)
(1.52467 0.00750715 0)
(1.46144 0.0328403 0)
(1.46847 0.0299441 0)
(1.47457 0.0272079 0)
(1.48001 0.0246935 0)
(1.48495 0.0223738 0)
(1.48941 0.0202255 0)
(1.49342 0.0182444 0)
(1.49701 0.0164314 0)
(1.50021 0.0147844 0)
(1.50307 0.0132986 0)
(1.50562 0.0119692 0)
(1.5079 0.0107911 0)
(1.50993 0.00976098 0)
(1.51176 0.00887359 0)
(1.51338 0.00812788 0)
(1.51491 0.00751624 0)
(1.51622 0.00704334 0)
(1.51764 0.00669623 0)
(1.51857 0.00648524 0)
(1.52038 0.00641057 0)
(1.45506 0.0256807 0)
(1.46212 0.0234431 0)
(1.46838 0.0213257 0)
(1.474 0.0193761 0)
(1.4791 0.0175744 0)
(1.48371 0.015904 0)
(1.48788 0.0143624 0)
(1.49162 0.0129507 0)
(1.49497 0.0116675 0)
(1.49798 0.0105095 0)
(1.50067 0.009473 0)
(1.50309 0.00855443 0)
(1.50527 0.00775111 0)
(1.50724 0.00705925 0)
(1.50901 0.00647779 0)
(1.51067 0.00600151 0)
(1.51212 0.00563303 0)
(1.51369 0.00536429 0)
(1.51473 0.00520018 0)
(1.51676 0.0051461 0)
(1.45025 0.018415 0)
(1.45733 0.0168213 0)
(1.46371 0.0153145 0)
(1.46946 0.0139261 0)
(1.47468 0.0126414 0)
(1.47941 0.0114491 0)
(1.48368 0.010348 0)
(1.48753 0.00933919 0)
(1.49099 0.00842178 0)
(1.49411 0.00759354 0)
(1.49691 0.00685201 0)
(1.49944 0.00619474 0)
(1.50171 0.00561982 0)
(1.50379 0.00512476 0)
(1.50566 0.00470854 0)
(1.50743 0.0043681 0)
(1.50896 0.00410424 0)
(1.51065 0.00391323 0)
(1.51176 0.00379538 0)
(1.51396 0.00375947 0)
(1.44706 0.0111007 0)
(1.45415 0.0101316 0)
(1.46061 0.00922419 0)
(1.46645 0.00839128 0)
(1.47173 0.00762098 0)
(1.47653 0.00690585 0)
(1.48087 0.00624522 0)
(1.48479 0.00563979 0)
(1.48833 0.00508907 0)
(1.49152 0.00459173 0)
(1.49439 0.00414631 0)
(1.49698 0.00375144 0)
(1.49932 0.0034059 0)
(1.50147 0.00310846 0)
(1.5034 0.00285809 0)
(1.50524 0.00265387 0)
(1.50683 0.00249453 0)
(1.5086 0.00238125 0)
(1.50975 0.00230824 0)
(1.51205 0.0022903 0)
(1.44547 0.00373992 0)
(1.45258 0.00339886 0)
(1.45908 0.00308831 0)
(1.46495 0.00280725 0)
(1.47027 0.00254892 0)
(1.4751 0.00230974 0)
(1.47947 0.00208909 0)
(1.48343 0.00188702 0)
(1.487 0.00170327 0)
(1.49022 0.00153733 0)
(1.49312 0.00138869 0)
(1.49575 0.00125691 0)
(1.49812 0.00114155 0)
(1.5003 0.00104229 0)
(1.50226 0.000958602 0)
(1.50413 0.000890572 0)
(1.50576 0.000836989 0)
(1.50756 0.000799805 0)
(1.50874 0.000774265 0)
(1.51108 0.000769888 0)
(1.51382 0.261905 1.64117e-21)
(1.53792 0.238726 0)
(1.55599 0.214483 -1.85362e-23)
(1.56565 0.189207 -8.81133e-22)
(1.5634 0.162132 -1.82923e-20)
(1.54313 0.133278 0)
(1.49823 0.100941 -2.96397e-20)
(1.41698 0.0691153 0)
(1.30893 0.0342507 -3.85582e-20)
(1.11879 0.0221117 5.95924e-22)
(1.49361 0.244323 -3.04347e-21)
(1.51885 0.225405 3.75845e-22)
(1.54003 0.205736 -3.77221e-22)
(1.55549 0.185651 -5.44111e-21)
(1.56382 0.164302 -1.95971e-21)
(1.55967 0.14248 1.62185e-22)
(1.54244 0.117124 0)
(1.49214 0.092572 1.98668e-20)
(1.43838 0.0613865 0)
(1.27276 0.0355951 3.71968e-20)
(1.47367 0.226753 6.66838e-21)
(1.49883 0.210971 0)
(1.52147 0.194783 -3.61264e-22)
(1.54002 0.178753 -4.46619e-21)
(1.55518 0.161939 1.80177e-21)
(1.56064 0.145608 0)
(1.56306 0.126353 -3.38007e-21)
(1.53283 0.106953 -2.02072e-20)
(1.51793 0.0830421 0)
(1.39149 0.0507105 -3.70029e-20)
(1.45534 0.209717 -3.19183e-21)
(1.47967 0.196394 1.28615e-20)
(1.5026 0.182903 0)
(1.5223 0.169823 1.12207e-20)
(1.54138 0.156286 3.95079e-22)
(1.55161 0.143289 -5.27485e-22)
(1.56581 0.128621 3.76504e-21)
(1.54879 0.112052 1.28688e-22)
(1.55697 0.0961294 9.00691e-21)
(1.47392 0.0654767 0)
(1.43897 0.193494 0)
(1.46214 0.182087 -1.25428e-20)
(1.48467 0.170676 -1.3759e-20)
(1.50429 0.159655 1.57856e-21)
(1.52501 0.14853 -9.49344e-22)
(1.53734 0.137473 -3.90215e-22)
(1.55732 0.126467 -1.21091e-20)
(1.55054 0.112095 -6.52584e-23)
(1.56919 0.102384 -7.7798e-21)
(1.52359 0.0773909 -1.02919e-20)
(1.42435 0.178082 4.93423e-21)
(1.44637 0.16819 9.13756e-22)
(1.46811 0.158422 -3.31263e-21)
(1.48713 0.148884 7.46126e-22)
(1.50801 0.139671 -1.82001e-20)
(1.52143 0.129997 0)
(1.54306 0.121842 1.30059e-20)
(1.54449 0.109635 -3.82064e-22)
(1.56527 0.103282 4.53345e-21)
(1.54684 0.0846941 1.23608e-20)
(1.41118 0.163369 -4.95374e-21)
(1.43218 0.154737 -9.1056e-21)
(1.45302 0.146328 1.40595e-20)
(1.47136 0.137969 -2.45763e-20)
(1.49154 0.130295 -4.52905e-21)
(1.50572 0.12181 -1.69268e-20)
(1.5265 0.115515 5.97387e-22)
(1.53387 0.105395 -9.76535e-22)
(1.55287 0.100288 -5.37754e-21)
(1.5517 0.0873609 -2.10908e-21)
(1.39922 0.149255 0)
(1.41937 0.141714 1.99845e-20)
(1.4393 0.134462 -2.03603e-21)
(1.45707 0.12713 1.25971e-20)
(1.47615 0.120645 -2.78609e-21)
(1.49086 0.113253 3.5728e-20)
(1.50972 0.107981 -1.49958e-20)
(1.52082 0.0998121 0)
(1.53724 0.0950352 0)
(1.54559 0.086428 0)
(1.38832 0.135642 0)
(1.40775 0.129077 -1.8922e-20)
(1.42683 0.12282 -1.1765e-21)
(1.44413 0.116426 1.44006e-20)
(1.46204 0.110845 2.42188e-20)
(1.477 0.10449 -2.10402e-20)
(1.49389 0.0997875 1.81841e-20)
(1.50695 0.0933443 -9.69746e-22)
(1.52123 0.0887012 0)
(1.53394 0.0830225 8.74124e-21)
(1.37842 0.122459 7.05271e-22)
(1.39723 0.116779 1.08934e-20)
(1.41552 0.111382 1.67638e-20)
(1.43239 0.105858 -7.96521e-22)
(1.44924 0.100997 1.88211e-21)
(1.4642 0.0956207 -2.60761e-20)
(1.47953 0.091334 2.33943e-20)
(1.49327 0.0862866 -1.124e-21)
(1.5061 0.0818426 0)
(1.52015 0.0780039 -1.98733e-20)
(1.36949 0.109671 0)
(1.38772 0.104786 1.12667e-20)
(1.40531 0.10014 8.70034e-22)
(1.42175 0.0954163 0)
(1.43772 0.0911743 0)
(1.45247 0.0866793 2.32238e-20)
(1.46668 0.0827928 -1.93917e-20)
(1.48035 0.0787985 -1.05391e-21)
(1.49223 0.0746762 6.1547e-22)
(1.50616 0.0719717 1.15435e-20)
(1.36149 0.0972298 0)
(1.37919 0.0930634 -2.16089e-20)
(1.39617 0.0890853 -2.26565e-20)
(1.41217 0.0850865 3.33521e-21)
(1.42744 0.0814072 -2.12297e-21)
(1.44182 0.0776731 -1.61337e-21)
(1.45525 0.0742119 2.98905e-21)
(1.46848 0.0710001 1.86431e-20)
(1.47974 0.0672985 1.65677e-21)
(1.49294 0.0653137 -4.85202e-22)
(1.3544 0.0850927 0)
(1.37163 0.0815787 1.17036e-20)
(1.38807 0.0782052 -1.25723e-21)
(1.40363 0.0748559 1.25341e-21)
(1.41833 0.0717036 0)
(1.43228 0.068615 0)
(1.44512 0.0656021 0)
(1.4578 0.0629901 -2.11228e-20)
(1.46861 0.0597583 1.94722e-20)
(1.48093 0.0582563 0)
(1.34823 0.0732225 0)
(1.36501 0.0703029 7.60172e-21)
(1.38099 0.0674842 9.64629e-21)
(1.39613 0.0647156 1.22518e-20)
(1.41036 0.0620617 -2.30553e-21)
(1.42386 0.0595251 1.38287e-20)
(1.43626 0.0569658 -1.19378e-20)
(1.44837 0.0548363 0)
(1.45882 0.0520812 1.94007e-21)
(1.47029 0.0509245 -1.83952e-20)
(1.34294 0.0615832 -1.72684e-21)
(1.35934 0.0592082 -6.17575e-21)
(1.37492 0.0569039 -1.24632e-20)
(1.38967 0.0546581 -8.62585e-21)
(1.40351 0.052476 0)
(1.41659 0.0504216 -1.75116e-20)
(1.42862 0.048304 1.72153e-20)
(1.44022 0.0465814 -1.63009e-21)
(1.45038 0.0442878 -9.74445e-21)
(1.46108 0.0433926 2.71232e-20)
(1.33854 0.0501388 1.73383e-21)
(1.35459 0.0482671 -4.87603e-21)
(1.36983 0.0464435 4.28034e-21)
(1.38425 0.044674 -1.04277e-20)
(1.39775 0.0429373 0)
(1.41048 0.0413141 0)
(1.42219 0.0396174 1.7104e-21)
(1.43336 0.0382517 -1.60912e-20)
(1.44328 0.0363978 -9.33881e-21)
(1.45333 0.0357097 -9.35485e-21)
(1.335 0.0388558 0)
(1.35077 0.0374535 7.95627e-21)
(1.36572 0.0360813 -2.85538e-21)
(1.37985 0.0347509 9.32879e-21)
(1.39309 0.0334338 2.48606e-21)
(1.40552 0.0322039 -1.99092e-21)
(1.41698 0.0309043 3.72257e-21)
(1.42781 0.0298606 1.11322e-20)
(1.43753 0.0284253 0)
(1.44707 0.0279066 0)
(1.33232 0.0277001 0)
(1.34785 0.0267443 3.27707e-21)
(1.36258 0.0258025 -5.89997e-21)
(1.37649 0.0248851 0)
(1.38952 0.0239659 -4.82215e-21)
(1.40173 0.023102 -2.02867e-21)
(1.41301 0.022177 -5.6226e-21)
(1.42358 0.0214284 -1.57549e-21)
(1.43318 0.0203907 8.56883e-22)
(1.44235 0.0200107 6.75204e-22)
(1.33048 0.0166214 0)
(1.34584 0.0161083 -3.28927e-21)
(1.36042 0.015594 -2.93258e-21)
(1.37418 0.0150829 3.99928e-21)
(1.38707 0.0145557 2.27564e-21)
(1.39913 0.0140473 2.16969e-21)
(1.41031 0.0134856 9.42483e-21)
(1.42072 0.0130161 -6.76675e-21)
(1.43025 0.0123585 1.56288e-21)
(1.43919 0.0120889 0)
(1.32954 0.00555345 0)
(1.34481 0.00544116 1.65739e-21)
(1.3593 0.00531973 -1.57889e-21)
(1.37298 0.00518779 1.48691e-21)
(1.38581 0.00503669 0)
(1.3978 0.00487716 -2.25062e-21)
(1.40892 0.00468391 1.89376e-21)
(1.41927 0.00450594 1.63696e-21)
(1.42877 0.00425025 0)
(1.43762 0.00410647 0)
(1.09257 0.424492 0)
(1.08302 0.461543 -1.29406e-19)
(1.07634 0.504866 0)
(1.06954 0.555915 -4.12003e-19)
(1.06011 0.61384 1.61333e-19)
(1.04351 0.675477 7.51881e-21)
(1.00731 0.728755 1.01497e-19)
(0.922052 0.741646 -2.71879e-20)
(0.734131 0.645574 0)
(0.360221 0.327079 7.40259e-20)
(1.14126 0.429526 2.35254e-19)
(1.13787 0.470292 1.29384e-19)
(1.13872 0.513198 -1.13398e-19)
(1.13889 0.563499 1.38548e-19)
(1.13633 0.620188 -9.86658e-20)
(1.126 0.678799 2.75984e-20)
(1.09311 0.725914 -1.11419e-19)
(1.00409 0.728683 -1.90023e-19)
(0.799291 0.621627 -4.64624e-20)
(0.387344 0.305599 -1.03181e-19)
(1.19209 0.429133 -9.78363e-20)
(1.1949 0.470168 9.7899e-20)
(1.20144 0.51237 1.13377e-19)
(1.20729 0.561436 1.11212e-19)
(1.21053 0.615782 1.06652e-19)
(1.20484 0.669784 9.83882e-20)
(1.1727 0.708838 3.0046e-20)
(1.07693 0.700036 6.67492e-20)
(0.852461 0.582801 1.08426e-20)
(0.405825 0.276679 -1.03318e-20)
(1.2443 0.423768 1.96246e-19)
(1.25211 0.463667 -9.78807e-20)
(1.26305 0.50434 0)
(1.27354 0.551071 0)
(1.28119 0.601624 0)
(1.27799 0.649326 4.8738e-20)
(1.24367 0.678281 -2.29579e-20)
(1.13699 0.657035 0)
(0.890747 0.531564 -6.95028e-21)
(0.41466 0.242101 1.65154e-20)
(1.29535 0.413446 -2.9354e-20)
(1.30741 0.451263 1.20569e-19)
(1.32201 0.489739 0)
(1.33612 0.533134 0)