/*--------------------------------*- C++ -*----------------------------------*\
| =========                 |                                                 |
| \\      /  F ield         | OpenFOAM: The Open Source CFD Toolbox           |
|  \\    /   O peration     | Version:  4.1                                   |
|   \\  /    A nd           | Web:      www.OpenFOAM.org                      |
|    \\/     M anipulation  |                                                 |
\*---------------------------------------------------------------------------*/
FoamFile
{
    version     2.0;
    format      ascii;
    class       volVectorField;
    location    "10";
    object      U;
}
// * * * * * * * * * * * * * * * * * * * * * * * * * * * * * * * * * * * * * //

dimensions      [0 1 -1 0 0 0 0];

internalField   nonuniform List<vector> 
3800
(
(-0.0369864 0.0247419 2.69829e-19)
(-0.0682273 0.0502222 0)
(-0.0549463 0.0596649 4.76148e-19)
(0.00537972 0.0605859 2.19122e-19)
(0.118135 0.0599053 -4.12702e-19)
(0.281889 0.0619591 -5.80622e-19)
(0.491237 0.0775713 1.83044e-19)
(0.677973 0.0856384 0)
(0.956231 0.120305 -1.67434e-19)
(1.06484 0.126283 0)
(-0.046742 0.025792 -1.34723e-19)
(-0.0703414 0.0396195 1.28198e-19)
(-0.0276596 0.0387218 -4.84002e-19)
(0.092148 0.0376859 -6.6859e-19)
(0.289156 0.0456865 -1.44851e-21)
(0.539296 0.0646875 1.92869e-19)
(0.792496 0.0941455 -1.81885e-19)
(1.03607 0.11869 -1.71915e-19)
(1.24844 0.156285 1.67323e-19)
(1.35384 0.157527 3.2342e-19)
(-0.0550028 0.0271289 1.37049e-19)
(-0.0574569 0.0325036 -1.32353e-19)
(0.0426559 0.0271299 2.41711e-19)
(0.257366 0.0347806 -2.76007e-21)
(0.550025 0.0618027 2.07401e-19)
(0.851773 0.0995419 1.93627e-19)
(1.11213 0.13804 1.81849e-19)
(1.31986 0.169078 1.71824e-19)
(1.43948 0.192001 1.58369e-19)
(1.54325 0.196923 -1.50699e-19)
(-0.0589595 0.0258762 -7.06342e-22)
(-0.0226044 0.0233724 -1.35004e-19)
(0.17035 0.0235748 0)
(0.499056 0.0548338 2.22343e-19)
(0.85198 0.104023 -2.11792e-19)
(1.14422 0.15146 0)
(1.3519 0.188376 0)
(1.46977 0.207076 0)
(1.53801 0.218402 -1.58381e-19)
(1.56075 0.21414 3.00662e-19)
(-0.05642 0.0208978 2.90427e-19)
(0.0452823 0.0110121 7.70101e-22)
(0.368219 0.0359451 1.27217e-19)
(0.781621 0.0983948 1.12899e-19)
(1.1247 0.159549 1.05495e-19)
(1.35216 0.202869 9.58755e-20)
(1.47431 0.225083 0)
(1.53305 0.232051 8.01599e-20)
(1.5488 0.232686 -3.72292e-19)
(1.54738 0.22104 4.98409e-19)
(-0.0446003 0.0120561 -4.44521e-19)
(0.161869 0.00369716 3.56348e-21)
(0.619044 0.0734499 -2.53845e-19)
(1.04295 0.156397 2.34673e-19)
(1.3198 0.213493 -3.12244e-19)
(1.46462 0.242308 9.91044e-20)
(1.52798 0.251599 0)
(1.54537 0.250559 -8.01861e-20)
(1.54375 0.243639 7.39413e-20)
(1.54184 0.233647 2.6348e-19)
(-0.0176793 0.00111374 0)
(0.339331 0.0194732 0)
(0.86965 0.13133 -1.28853e-19)
(1.24118 0.215795 1.20701e-19)
(1.43721 0.259052 -1.02343e-19)
(1.52028 0.274408 9.65276e-20)
(1.54317 0.274486 1.64521e-19)
(1.5412 0.267304 -1.56038e-19)
(1.53155 0.256763 -1.36334e-19)
(1.51626 0.245663 6.44796e-20)
(0.033612 -0.0075948 8.3546e-20)
(0.55751 0.0677421 0)
(1.07936 0.197751 -6.27261e-20)
(1.3748 0.270991 2.3673e-19)
(1.50225 0.299315 -1.59035e-19)
(1.53957 0.30326 0)
(1.5393 0.295993 0)
(1.52633 0.284448 0)
(1.50977 0.270324 -1.28808e-19)
(1.4968 0.25946 1.22813e-19)
(0.11411 -0.00470773 -4.19417e-20)
(0.768291 0.138908 -4.71488e-22)
(1.23813 0.266597 -6.77338e-20)
(1.45768 0.322679 2.91665e-20)
(1.52997 0.336195 2.75005e-20)
(1.5382 0.330669 4.61122e-20)
(1.52464 0.317975 0)
(1.50621 0.302456 -1.66879e-20)
(1.4894 0.286634 -7.50813e-20)
(1.47278 0.275175 5.73751e-20)
(0.221156 0.0170658 0)
(0.943789 0.218591 -3.96618e-20)
(1.34855 0.334977 0)
(1.50142 0.371581 -1.54053e-20)
(1.53419 0.371518 -1.4457e-20)
(1.5241 0.358266 -2.21604e-20)
(1.50364 0.340698 0)
(1.48301 0.321953 1.66946e-20)
(1.46361 0.304289 1.48889e-20)
(1.447 0.290542 1.24905e-20)
(-0.0217566 0.0192046 0)
(-0.0776161 0.0303528 -3.04672e-20)
(-0.147343 0.0320346 0)
(-0.209963 0.0317853 -4.16078e-20)
(-0.266431 0.0314491 -1.35726e-20)
(-0.318512 0.0312049 2.62375e-20)
(-0.366797 0.0310006 -2.47926e-20)
(-0.412081 0.0308128 2.47717e-20)
(-0.45488 0.0306749 -3.4626e-22)
(-0.494679 0.0306116 2.45812e-20)
(-0.0233613 0.0546327 -9.2987e-20)
(-0.0753355 0.0878247 5.98466e-20)
(-0.138343 0.0935933 -5.7585e-20)
(-0.194225 0.0931222 2.72998e-20)
(-0.243722 0.0921112 1.33428e-19)
(-0.28836 0.091317 -5.07184e-20)
(-0.328657 0.0906455 0)
(-0.365326 0.0900318 -2.45756e-20)
(-0.398955 0.08957 -2.41781e-20)
(-0.429335 0.0893155 0)
(-0.0259774 0.081501 6.2043e-20)
(-0.0712013 0.1358 0)
(-0.122106 0.147594 1.74745e-19)
(-0.165878 0.147803 -2.22321e-19)
(-0.202939 0.146202 5.25078e-20)
(-0.234475 0.14471 0)
(-0.260933 0.143417 0)
(-0.282846 0.14225 0)
(-0.300868 0.141313 1.98739e-19)
(-0.315786 0.140663 -1.94976e-19)
(-0.0284987 0.0959902 0)
(-0.0658234 0.169037 -1.2516e-19)
(-0.101503 0.189388 2.35757e-19)
(-0.129753 0.191877 -1.11376e-19)
(-0.151005 0.190021 1.09753e-19)
(-0.166113 0.187664 -3.16495e-19)
(-0.175548 0.185513 -6.13596e-21)
(-0.179712 0.183632 1.96834e-19)
(-0.17892 0.182066 1.99343e-19)
(-0.175386 0.18066 -2.91541e-19)
(-0.0298333 0.0970961 1.29594e-19)
(-0.0599356 0.184083 -2.52906e-19)
(-0.0799243 0.215084 5.65572e-22)
(-0.0913439 0.221925 1.01288e-21)
(-0.0954031 0.220586 1.11618e-19)
(-0.092818 0.217319 -3.12715e-19)
(-0.0841889 0.214022 0)
(-0.0702091 0.211219 -9.90696e-20)
(-0.050766 0.209159 9.68789e-20)
(-0.0260547 0.207425 -3.92818e-19)
(-0.0293792 0.0868636 -8.56198e-22)
(-0.054338 0.180063 2.54391e-19)
(-0.0608859 0.22154 1.19388e-19)
(-0.0564476 0.234455 1.13152e-19)
(-0.0436761 0.234878 1.08702e-19)
(-0.0237814 0.231001 1.0483e-19)
(0.00239041 0.226231 0)
(0.0339325 0.221848 9.90218e-20)
(0.0688699 0.218846 2.93018e-19)
(0.116817 0.217887 -9.08201e-20)
(-0.0274292 0.0698177 2.63265e-22)
(-0.0500453 0.159545 1.28399e-19)
(-0.0476079 0.207514 0)
(-0.0306549 0.226098 -2.28815e-19)
(-0.00350925 0.228979 2.13706e-19)
(0.0315181 0.224997 0)
(0.0727165 0.218665 0)
(0.121113 0.21229 0)
(0.165072 0.207206 -1.84671e-19)
(0.239482 0.202732 -3.76726e-19)
(-0.0253201 0.0514603 -1.33336e-19)
(-0.0483824 0.128831 1.28757e-19)
(-0.0424134 0.175871 2.38586e-19)
(-0.0180355 0.196197 -2.08024e-21)
(0.0191538 0.200052 2.09868e-19)
(0.0658144 0.195705 1.99249e-19)
(0.119409 0.187689 1.90756e-19)
(0.186877 0.180402 1.83951e-19)
(0.234664 0.174762 1.84632e-19)
(0.356124 0.165611 -1.78622e-19)
(-0.0252055 0.0364861 -4.01201e-19)
(-0.0511346 0.0961803 -1.2705e-19)
(-0.0460353 0.134205 -4.74938e-19)
(-0.0184641 0.150415 -2.21571e-19)
(0.0263313 0.152291 -2.78724e-21)
(0.0859379 0.147 -2.01645e-19)
(0.161719 0.13896 1.83193e-19)
(0.261536 0.135062 -1.83926e-19)
(0.333107 0.132248 1.74838e-19)
(0.54211 0.128564 -3.46161e-19)
(-0.0290491 0.0275156 2.67787e-19)
(-0.0590473 0.0687693 0)
(-0.0546938 0.09261 2.37982e-19)
(-0.0205504 0.100783 1.39773e-21)
(0.0426053 0.0997129 -4.20564e-22)
(0.136313 0.0950169 1.94154e-19)
(0.268428 0.0944648 -5.55173e-19)
(0.412201 0.0957776 0)
(0.574205 0.105163 -1.74743e-19)
(0.822736 0.11728 0)
(-0.543502 0.0305144 0)
(-0.602455 0.0256843 0)
(-0.650479 0.0233248 0)
(-0.694622 0.0197184 1.06658e-21)
(-0.730892 0.0171334 0)
(-0.762995 0.0142691 0)
(-0.789139 0.0119414 -1.87484e-20)
(-0.811509 0.00962661 -2.80409e-22)
(-0.829388 0.00765839 1.00608e-21)
(-0.844059 0.00581883 -1.11821e-22)
(-0.855064 0.00420567 1.94253e-20)
(-0.862887 0.00261469 1.21882e-21)
(-0.867075 0.00100485 1.21347e-21)
(-0.868062 -0.000614641 0)
(-0.865455 -0.00248568 0)
(-0.859063 -0.00463083 0)
(-0.8482 -0.00705453 -1.77095e-20)
(-0.832234 -0.00982071 1.77303e-20)
(-0.810347 -0.0129416 0)
(-0.781815 -0.0164008 0)
(-0.745887 -0.0201489 0)
(-0.70206 -0.0240525 1.26098e-20)
(-0.650113 -0.0279191 -1.26248e-20)
(-0.59025 -0.0315032 -1.02913e-20)
(-0.523072 -0.0345928 9.08156e-21)
(-0.449814 -0.0369159 4.63582e-22)
(-0.371889 -0.0384479 5.08249e-21)
(-0.29082 -0.0391718 -5.08856e-21)
(-0.208584 -0.0389267 2.57016e-21)
(-0.126624 -0.0381184 -2.57324e-21)
(-0.0463663 -0.0365472 0)
(0.0308761 -0.0346169 -6.27761e-23)
(0.104384 -0.032411 6.28517e-23)
(0.173712 -0.0300762 8.29204e-22)
(0.238482 -0.0277074 -8.30203e-22)
(0.29858 -0.025388 0)
(0.354051 -0.0231863 1.36301e-21)
(0.405024 -0.0211388 -1.36466e-21)
(0.45169 -0.0192429 0)
(0.494293 -0.0174932 0)
(0.533114 -0.0158899 0)
(0.568446 -0.0144312 0)
(0.600585 -0.0131109 7.37576e-23)
(0.629822 -0.0119198 -6.86497e-23)
(0.656431 -0.0108478 6.34012e-23)
(0.680671 -0.00988477 0)
(0.702778 -0.00902074 0)
(0.722969 -0.00824598 0)
(0.74144 -0.00755141 -3.35728e-22)
(0.758368 -0.00692835 3.33776e-23)
(0.773908 -0.00636914 3.03131e-22)
(0.788206 -0.0058664 0)
(0.801381 -0.00541398 0)
(0.813551 -0.00500573 0)
(0.824805 -0.00463697 0)
(0.835244 -0.00430255 1.56972e-22)
(0.844927 -0.00399906 -1.57165e-22)
(0.853945 -0.00372213 0)
(0.862328 -0.00346946 0)
(0.870167 -0.00323727 0)
(0.87746 -0.0030241 -4.43129e-23)
(0.88431 -0.00282678 4.43678e-23)
(0.890675 -0.00264434 0)
(0.896683 -0.00247436 -3.12738e-23)
(0.902247 -0.00231591 5.91225e-23)
(0.90753 -0.00216763 -3.13883e-24)
(0.912389 -0.00202806 -2.47364e-23)
(0.91704 -0.00189719 0)
(0.921272 -0.00177272 0)
(0.925367 -0.00165554 0)
(0.929026 -0.00154364 6.60844e-24)
(0.932632 -0.0014361 -8.70001e-25)
(0.935751 -0.00133571 -5.75392e-24)
(0.938938 -0.00123238 -4.19947e-24)
(0.941509 -0.0011449 4.20475e-24)
(0.944377 -0.00103892 -1.4031e-24)
(0.946319 -0.000969671 1.40486e-24)
(0.949045 -0.000851662 -3.7084e-25)
(0.950163 -0.00080984 2.67284e-25)
(0.953092 -0.000668677 9.37056e-26)
(-0.464979 0.0886717 5.9876e-20)
(-0.521448 0.0744226 -6.30847e-20)
(-0.561642 0.0671094 -2.05815e-21)
(-0.600693 0.0568228 -3.20746e-21)
(-0.63145 0.0490643 -2.21754e-21)
(-0.65875 0.040849 -2.28203e-21)
(-0.680441 0.0339521 -7.75006e-20)
(-0.698582 0.0272735 7.28675e-20)
(-0.712597 0.0214512 -3.60922e-21)
(-0.723527 0.016046 -2.43122e-21)
(-0.731154 0.0112817 -8.03681e-20)
(-0.735858 0.00672945 7.67932e-20)
(-0.737217 0.00222832 -1.21072e-21)
(-0.735766 -0.00272341 0)
(-0.731112 -0.00811288 0)
(-0.722894 -0.0142263 0)
(-0.710601 -0.0211588 0)
(-0.693621 -0.0290808 0)
(-0.671209 -0.0380674 6.52124e-20)
(-0.642678 -0.0480707 -6.52832e-20)
(-0.607287 -0.0589828 -5.47123e-20)
(-0.564514 -0.070413 5.31283e-21)
(-0.514126 -0.0817973 5.13888e-20)
(-0.456321 -0.0923984 4.14676e-20)
(-0.391561 -0.101695 -2.23436e-20)
(-0.321419 -0.10865 -1.70698e-20)
(-0.247206 -0.113345 1.05543e-20)
(-0.169955 -0.115784 -1.84171e-20)
(-0.0920379 -0.114881 1.33126e-20)
(-0.0147244 -0.111841 -5.45883e-21)
(0.0608474 -0.107259 0)
(0.133093 -0.101588 4.17213e-22)
(0.201467 -0.0950994 -3.43766e-22)
(0.265657 -0.0882046 0)
(0.325394 -0.0812054 0)
(0.380601 -0.0743389 2.25995e-21)
(0.431352 -0.0677867 2.06669e-22)
(0.477826 -0.0616722 -2.76399e-21)
(0.520246 -0.0560342 -1.63489e-22)
(0.558851 -0.0508572 -1.62117e-22)
(0.593906 -0.0461252 0)
(0.625696 -0.041826 -1.50108e-22)
(0.654512 -0.037941 -2.14826e-22)
(0.680633 -0.0344433 -2.14208e-21)
(0.704322 -0.031302 1.03255e-22)
(0.725826 -0.0284854 1.80449e-21)
(0.74537 -0.0259628 -1.70004e-21)
(0.76316 -0.0237044 1.5061e-21)
(0.779379 -0.0216829 0)
(0.794196 -0.0198722 0)
(0.807756 -0.0182495 -6.88306e-23)
(0.820194 -0.0167929 0)
(0.831622 -0.0154841 -5.55574e-23)
(0.84215 -0.0143048 -4.33742e-22)
(0.851861 -0.0132411 3.39818e-22)
(0.860847 -0.0122777 3.98494e-23)
(0.869162 -0.0114047 2.38433e-22)
(0.87689 -0.010609 -6.1591e-23)
(0.884059 -0.00988386 -2.73164e-22)
(0.890752 -0.00921816 -1.94422e-22)
(0.896966 -0.00860761 3.45356e-22)
(0.902793 -0.00804288 -1.93524e-22)
(0.908199 -0.00752109 -1.55273e-22)
(0.913295 -0.00703528 1.52915e-23)
(0.918006 -0.00658247 1.08237e-22)
(0.922472 -0.0061591 -1.2588e-23)
(0.926576 -0.00576035 0)
(0.930492 -0.00538688 -4.78528e-23)
(0.934058 -0.00503124 -4.29917e-24)
(0.937489 -0.00469689 3.35567e-23)
(0.940567 -0.00437704 2.58465e-23)
(0.943567 -0.00406999 -3.18119e-23)
(0.94619 -0.00378296 -5.14155e-24)
(0.948814 -0.0034873 3.81676e-24)
(0.950977 -0.00323708 -4.52797e-24)
(0.953303 -0.002932 -3.04422e-24)
(0.954941 -0.00273397 -2.79064e-25)
(0.957115 -0.00239321 -2.42187e-24)
(0.958059 -0.00227429 -1.04893e-24)
(0.960367 -0.00186681 -7.86217e-25)
(-0.331692 0.138773 1.89943e-21)
(-0.38118 0.116458 1.98548e-21)
(-0.410368 0.10368 1.38237e-19)
(-0.440624 0.0881666 -1.34117e-19)
(-0.463573 0.0753059 -1.43511e-19)
(-0.483576 0.0625711 1.50503e-19)
(-0.498993 0.0513708 4.72697e-21)
(-0.51113 0.0409044 4.81232e-21)
(-0.519834 0.0315637 -1.2194e-23)
(-0.525619 0.0229859 2.4531e-21)
(-0.528557 0.0152079 1.60579e-19)
(-0.528856 0.00793494 -1.58262e-19)
(-0.526828 0.000852557 7.84849e-20)
(-0.522282 -0.00684297 -8.65921e-22)
(-0.514833 -0.0151277 -1.5429e-19)
(-0.50437 -0.0244239 7.65971e-20)
(-0.49044 -0.0350305 0)
(-0.472486 -0.0472141 0)
(-0.449801 -0.0611987 -6.70717e-20)
(-0.421854 -0.0769221 6.71339e-20)
(-0.387883 -0.0942761 5.6795e-20)
(-0.347366 -0.112659 -5.24015e-21)
(-0.30006 -0.131212 -5.35445e-20)
(-0.246386 -0.148733 4.02281e-20)
(-0.185992 -0.164601 -4.16368e-20)
(-0.120836 -0.176117 2.88922e-20)
(-0.0531485 -0.183535 -2.89197e-20)
(0.0171648 -0.186147 0)
(0.0890365 -0.184734 1.27234e-20)
(0.158964 -0.179758 -1.22507e-20)
(0.226315 -0.172342 4.23075e-21)
(0.290413 -0.163082 -6.12188e-21)
(0.350702 -0.152523 1.60053e-21)
(0.406905 -0.141298 -2.27064e-21)
(0.458882 -0.129917 2.27287e-21)
(0.506632 -0.118753 1.32417e-22)
(0.550261 -0.108069 0)
(0.589969 -0.0980473 1.60795e-22)
(0.626017 -0.0888072 -4.73297e-21)
(0.658662 -0.0803677 2.44934e-22)
(0.688144 -0.0726909 4.97306e-21)
(0.714717 -0.0657366 4.84774e-21)
(0.738646 -0.0594668 -4.41953e-21)
(0.76019 -0.0538366 -3.72462e-21)
(0.779593 -0.0487949 4.10032e-21)
(0.797079 -0.0442879 1.12555e-22)
(0.812854 -0.0402633 1.02854e-22)
(0.827103 -0.0366704 1.82235e-22)
(0.839995 -0.0334632 1.26557e-21)
(0.851681 -0.0305982 -1.19397e-21)
(0.862292 -0.0280376 6.90317e-23)
(0.871949 -0.0257452 9.24531e-22)
(0.880755 -0.023691 -8.16613e-22)
(0.888806 -0.0218451 4.99148e-23)
(0.896177 -0.0201846 4.46709e-23)
(0.902948 -0.0186849 -6.33989e-22)
(0.90917 -0.0173293 1.16082e-21)
(0.914914 -0.016097 -4.99192e-22)
(0.920207 -0.0149767 4.50663e-22)
(0.925118 -0.0139507 -4.22678e-22)
(0.929649 -0.0130114 2.25669e-23)
(0.933874 -0.0121448 2.01036e-23)
(0.93777 -0.0113448 1.79009e-23)
(0.941421 -0.0106019 -1.18353e-22)
(0.94478 -0.00990926 2.37884e-22)
(0.94794 -0.00926373 -9.27506e-23)
(0.950837 -0.0086544 1.07159e-23)
(0.95357 -0.00808627 -6.35637e-23)
(0.956064 -0.00754292 8.23187e-23)
(0.958416 -0.00703512 7.41716e-24)
(0.960556 -0.0065463 5.00871e-23)
(0.962563 -0.00607995 -3.8508e-23)
(0.964381 -0.00564115 2.39243e-23)
(0.966075 -0.00519065 -1.44023e-23)
(0.967577 -0.00480797 -3.69984e-24)
(0.969004 -0.00433902 6.23266e-25)
(0.970148 -0.00403543 7.72669e-24)
(0.971401 -0.00350782 3.64868e-25)
(0.972067 -0.00332583 1.39918e-24)
(0.973339 -0.00269507 4.24147e-25)
(-0.173937 0.176971 1.92948e-21)
(-0.209755 0.15024 1.35016e-19)
(-0.228776 0.131854 5.65496e-21)
(-0.248687 0.113024 -2.8496e-19)
(-0.264184 0.0955541 2.90214e-19)
(-0.277118 0.0790741 -1.50926e-19)
(-0.286849 0.0641102 -2.40321e-21)
(-0.293765 0.05035 -1.62759e-19)
(-0.297987 0.0379479 3.20032e-19)
(-0.299697 0.026664 -1.62204e-19)
(-0.29901 0.0163046 1.58581e-19)
(-0.295758 0.00664487 -1.61216e-19)
(-0.290948 -0.00284427 -1.5762e-19)
(-0.283881 -0.012541 3.18939e-19)
(-0.274356 -0.0230021 -1.56324e-19)
(-0.262214 -0.0347241 0)
(-0.247086 -0.0481786 0)
(-0.228556 -0.063775 1.44864e-19)
(-0.205758 -0.0821504 -1.42721e-19)
(-0.178311 -0.102711 0)
(-0.145569 -0.125519 0)
(-0.107154 -0.150014 0)
(-0.0628987 -0.175108 0)
(-0.0143423 -0.199148 1.52332e-21)
(0.0399017 -0.21918 0)
(0.100496 -0.234641 -6.27139e-20)
(0.162697 -0.244913 1.24963e-20)
(0.224559 -0.248182 1.23288e-20)
(0.28645 -0.246335 3.824e-20)
(0.346638 -0.240083 1.94623e-20)
(0.404097 -0.230102 -1.92618e-20)
(0.458264 -0.217455 -2.991e-21)
(0.508804 -0.203108 2.99331e-21)
(0.555582 -0.187909 -1.17893e-21)
(0.598583 -0.17253 1.17985e-21)
(0.637878 -0.157464 -7.54282e-23)
(0.673608 -0.143051 0)
(0.705957 -0.129506 0)
(0.735163 -0.116972 -2.74664e-22)
(0.761491 -0.105528 0)
(0.785171 -0.0951553 4.23966e-21)
(0.806405 -0.0857908 -3.27241e-22)
(0.825404 -0.0773665 -2.33116e-22)
(0.842386 -0.0698144 -7.78078e-21)
(0.857558 -0.0630643 3.47943e-21)
(0.871112 -0.0570437 0)
(0.883224 -0.0516814 -2.97652e-21)
(0.894052 -0.0469077 2.79992e-21)
(0.90374 -0.0426588 -2.38512e-21)
(0.912416 -0.0388747 2.31375e-21)
(0.920196 -0.0355028 0)
(0.927182 -0.0324933 -5.51795e-23)
(0.933463 -0.029805 -5.33318e-23)
(0.939123 -0.0273971 0)
(0.944228 -0.0252384 0)
(0.948847 -0.0232953 -3.57482e-23)
(0.953024 -0.0215448 0)
(0.95682 -0.0199594 2.85534e-23)
(0.960262 -0.0185226 4.008e-22)
(0.963403 -0.0172118 -4.01103e-22)
(0.966255 -0.016015 0)
(0.968868 -0.0149153 3.01719e-22)
(0.971243 -0.0139017 -2.83871e-22)
(0.973422 -0.012965 -1.43229e-23)
(0.975403 -0.012091 0)
(0.977217 -0.0112818 0)
(0.978872 -0.010515 -2.07836e-23)
(0.980369 -0.00980641 0)
(0.981753 -0.00912371 0)
(0.982962 -0.00849307 4.68721e-23)
(0.984123 -0.00787972 -1.28725e-23)
(0.985065 -0.00730159 -5.33116e-23)
(0.98604 -0.00675173 3.1078e-23)
(0.986727 -0.00619163 -3.57483e-23)
(0.987536 -0.00571251 9.28632e-24)
(0.987983 -0.00512395 -1.5569e-23)
(0.98861 -0.00474312 0)
(0.988856 -0.00407346 0)
(0.989233 -0.00384398 -1.65062e-24)
(0.989373 -0.00304221 6.17384e-25)
(-0.0144791 0.199343 2.40631e-19)
(-0.0311987 0.174029 2.02617e-21)
(-0.0402334 0.152821 1.41129e-19)
(-0.0500094 0.131932 -1.3445e-19)
(-0.0588082 0.111574 2.33162e-21)
(-0.0659703 0.092286 -1.50501e-19)
(-0.0713318 0.0742472 1.55337e-19)
(-0.0747867 0.0575424 -1.58595e-19)
(-0.0762811 0.0423777 1.66219e-19)
(-0.0757837 0.0286312 2.55458e-21)
(-0.0732935 0.0160616 2.56673e-21)
(-0.068441 0.00423924 0)
(-0.0622457 -0.00731516 2.58212e-21)
(-0.0538937 -0.0189113 -1.62549e-19)
(-0.0432338 -0.0312584 1.65164e-19)
(-0.0300781 -0.0450302 0)
(-0.0140617 -0.0608634 1.54233e-19)
(0.00465287 -0.0793797 -1.54292e-19)
(0.0274624 -0.100545 -1.46124e-19)
(0.055849 -0.124676 1.43899e-19)
(0.0891947 -0.151902 4.20185e-21)
(0.127502 -0.181452 0)
(0.170992 -0.211945 0)
(0.218584 -0.241537 -1.54445e-21)
(0.268583 -0.265424 2.8389e-21)
(0.321701 -0.283825 0)
(0.375772 -0.296242 0)
(0.4289 -0.301311 8.95717e-22)
(0.4804 -0.299337 3.32444e-20)
(0.529366 -0.291457 -3.23001e-20)
(0.57527 -0.279022 0)
(0.617951 -0.2634 4.60561e-22)
(0.657385 -0.245796 0)
(0.69362 -0.227212 1.30134e-22)
(0.726759 -0.20844 0)
(0.75693 -0.19006 7.62056e-23)
(0.784288 -0.172475 0)
(0.809 -0.155942 -1.66497e-22)
(0.831247 -0.140605 7.52891e-21)
(0.851244 -0.126557 -7.61261e-21)
(0.869203 -0.113826 1.29617e-22)
(0.88529 -0.102357 3.45824e-21)
(0.899651 -0.0920597 -7.17626e-21)
(0.912438 -0.0828381 3.50686e-21)
(0.923803 -0.0746003 1.06093e-22)
(0.933893 -0.0672567 2.68278e-21)
(0.94284 -0.0607216 -2.76617e-21)
(0.950767 -0.054911 0)
(0.957785 -0.049748 -1.34182e-22)
(0.963995 -0.0451591 0)
(0.969485 -0.0410796 0)
(0.974337 -0.0374479 5.54855e-23)
(0.978622 -0.0342126 0)
(0.982407 -0.0313232 1.30179e-21)
(0.985746 -0.0287406 -1.30238e-21)
(0.988692 -0.0264237 3.59027e-23)
(0.991288 -0.0243431 0)
(0.993577 -0.0224659 -2.86593e-23)
(0.995591 -0.02077 0)
(0.997361 -0.0192298 0)
(0.998915 -0.0178272 -3.32702e-22)
(1.00027 -0.0165452 2.77589e-22)
(1.00147 -0.0153652 -2.94858e-23)
(1.00249 -0.014282 1.96698e-22)
(1.0034 -0.0132702 -4.17521e-22)
(1.00414 -0.0123418 1.64804e-22)
(1.00482 -0.0114579 -1.36114e-22)
(1.00532 -0.0106511 1.4625e-22)
(1.00583 -0.00986677 0)
(1.00611 -0.0091536 0)
(1.00649 -0.00845174 6.12256e-24)
(1.00656 -0.00780069 2.86594e-23)
(1.00687 -0.00717452 -6.69806e-23)
(1.00671 -0.00654236 2.58992e-23)
(1.00697 -0.00599992 3.3476e-24)
(1.0066 -0.00532805 4.4132e-24)
(1.00682 -0.00489789 -9.42738e-24)
(1.00623 -0.00412276 0)
(1.00638 -0.00386284 -7.77058e-25)
(1.00559 -0.00293314 -4.83803e-25)
(0.131648 0.206457 0)
(0.135919 0.186431 -4.20492e-21)
(0.138815 0.166683 2.86122e-19)
(0.139105 0.14555 -2.90697e-19)
(0.137767 0.124482 0)
(0.135816 0.103945 3.11505e-19)
(0.134036 0.0840285 1.20799e-20)
(0.133029 0.0651695 -3.2348e-19)
(0.133095 0.0477299 -1.03449e-20)
(0.134447 0.0317409 -3.35754e-19)
(0.137227 0.0170005 3.41003e-19)
(0.14214 0.002978 -3.31954e-19)
(0.148564 -0.0106197 6.68049e-19)
(0.157155 -0.0242179 -3.36085e-19)
(0.168229 -0.038554 -5.17694e-21)
(0.182113 -0.0543905 5.13351e-21)
(0.199279 -0.0725563 0)
(0.219952 -0.0938251 0)
(0.244478 -0.117515 -1.491e-19)
(0.274216 -0.144724 1.53688e-19)
(0.309148 -0.17571 8.74029e-23)
(0.3488 -0.209251 -1.24458e-19)
(0.392544 -0.243568 1.2445e-19)
(0.438977 -0.276295 0)
(0.486426 -0.30445 -2.88752e-21)
(0.533916 -0.325871 0)
(0.579835 -0.339436 2.21704e-21)
(0.622946 -0.344484 -4.97291e-20)
(0.662817 -0.341622 4.98976e-20)
(0.699338 -0.332148 -9.74545e-22)
(0.732616 -0.317639 0)
(0.762924 -0.299646 1.44153e-22)
(0.790546 -0.27951 -8.12173e-21)
(0.815711 -0.258324 4.22729e-21)
(0.838609 -0.236947 4.1782e-21)
(0.859403 -0.216012 1.65423e-21)
(0.878238 -0.195963 -1.65444e-21)
(0.895251 -0.177088 4.75152e-21)
(0.910572 -0.159554 -4.67073e-21)
(0.924336 -0.143443 6.37516e-23)
(0.936704 -0.128802 1.58703e-22)
(0.947818 -0.115609 2.13345e-22)
(0.957775 -0.103779 -6.05134e-21)
(0.966661 -0.0931976 5.72695e-21)
(0.974562 -0.0837499 0)
(0.981565 -0.0753267 2.86256e-23)
(0.987756 -0.0678273 0)
(0.993216 -0.0611561 -2.23915e-21)
(0.998017 -0.0552266 2.13255e-21)
(1.00223 -0.0499572 0)
(1.00591 -0.0452753 -9.67552e-23)
(1.00911 -0.0411117 0)
(1.01189 -0.0374075 0)
(1.0143 -0.0341054 -1.24133e-21)
(1.01636 -0.0311595 1.10536e-21)
(1.01812 -0.0285233 -9.98685e-22)
(1.01962 -0.0261615 1.83466e-21)
(1.02088 -0.0240374 -1.35873e-22)
(1.02193 -0.022123 -1.46598e-21)
(1.02278 -0.0203916 6.71979e-22)
(1.02348 -0.0188178 3.72664e-23)
(1.02401 -0.0173873 2.9478e-23)
(1.02443 -0.0160714 2.95655e-23)
(1.0247 -0.0148724 2.63091e-23)
(1.02492 -0.0137503 2.59796e-24)
(1.02497 -0.0127311 2.07882e-23)
(1.02503 -0.0117555 0)
(1.02489 -0.010877 -1.45386e-23)
(1.02484 -0.0100155 -1.03326e-22)
(1.02451 -0.00924503 1.82971e-22)
(1.02441 -0.00847911 -1.12801e-23)
(1.0239 -0.0077793 -7.8617e-23)
(1.02379 -0.00710279 0)
(1.02309 -0.00642139 -1.81453e-23)
(1.02302 -0.00584241 1.99614e-23)
(1.02212 -0.00511031 4.99845e-24)
(1.02209 -0.00465604 0)
(1.02097 -0.00379782 2.4775e-24)
(1.02099 -0.0035248 1.20632e-24)
(1.01961 -0.00249198 5.78262e-25)
(0.257145 0.196245 2.39623e-19)
(0.277703 0.186408 -2.71449e-19)
(0.293275 0.171744 2.75433e-19)
(0.304563 0.153436 3.01438e-19)
(0.312363 0.134022 -3.01273e-19)
(0.317188 0.113864 3.22009e-19)
(0.320158 0.0932998 -6.56858e-19)
(0.322304 0.0731806 6.65883e-19)
(0.324294 0.0541407 -6.66257e-19)
(0.326624 0.0363131 3.40665e-19)
(0.329654 0.0198193 -5.40106e-21)
(0.334512 0.00385746 -5.41405e-21)
(0.341061 -0.0119996 0)
(0.349889 -0.0277445 0)
(0.361628 -0.0442 0)
(0.376731 -0.0621631 -1.05414e-20)
(0.395714 -0.0825013 0)
(0.418867 -0.106022 3.19749e-19)
(0.446542 -0.132986 -3.19575e-19)
(0.479375 -0.163636 -4.70238e-21)
(0.517121 -0.197826 -4.46823e-21)
(0.558875 -0.234393 0)
(0.603296 -0.271449 0)
(0.648447 -0.306286 0)
(0.692071 -0.335714 0)
(0.732511 -0.357667 0)
(0.76877 -0.371004 -2.26103e-21)
(0.800476 -0.375423 -5.80796e-20)
(0.827842 -0.37155 5.61985e-20)
(0.851381 -0.360767 0)
(0.871753 -0.344798 0)
(0.889639 -0.325267 -6.22072e-22)
(0.905568 -0.303532 -9.90246e-22)
(0.919886 -0.280702 8.26427e-21)
(0.932823 -0.257651 -3.75658e-21)
(0.944541 -0.235038 -4.65358e-21)
(0.955166 -0.213333 -5.35042e-22)
(0.964796 -0.192851 6.23372e-22)
(0.973513 -0.173783 0)
(0.981385 -0.156217 1.47529e-22)
(0.988498 -0.140184 -4.50111e-21)
(0.99495 -0.125684 4.33874e-21)
(1.00081 -0.112664 4.74455e-21)
(1.00611 -0.101025 -4.41397e-21)
(1.01088 -0.0906445 0)
(1.01514 -0.0813982 -3.94467e-21)
(1.01893 -0.0731687 4.09009e-21)
(1.02228 -0.0658463 2.29798e-22)
(1.02522 -0.0593334 1.17138e-22)
(1.02779 -0.0535404 -3.00566e-21)
(1.03001 -0.0483887 3.10209e-21)
(1.03193 -0.0438046 0)
(1.03356 -0.0397247 6.71142e-23)
(1.03493 -0.0360882 7.21439e-23)
(1.03608 -0.0328449 6.48783e-23)
(1.03701 -0.0299457 5.82264e-23)
(1.03776 -0.0273502 -5.21677e-23)
(1.03833 -0.0250208 7.04746e-22)
(1.03876 -0.0229236 -6.16111e-22)
(1.03903 -0.0210329 0)
(1.03921 -0.0193158 0)
(1.03925 -0.0177624 -2.95868e-23)
(1.03923 -0.0163329 0)
(1.03907 -0.0150395 -3.30686e-22)
(1.03891 -0.0138261 5.74823e-23)
(1.03858 -0.0127344 2.93809e-22)
(1.03832 -0.0116837 0)
(1.03783 -0.0107497 2.05868e-24)
(1.03751 -0.0098266 -9.03803e-23)
(1.03686 -0.00901298 1.01683e-22)
(1.03654 -0.00819921 6.96052e-23)
(1.03573 -0.00746341 -6.08932e-23)
(1.03544 -0.00675507 3.25098e-23)
(1.03447 -0.00603629 -3.93538e-24)
(1.03425 -0.00544117 -1.66646e-23)
(1.03311 -0.00466011 1.47059e-23)
(1.03299 -0.00420249 -1.47003e-23)
(1.03165 -0.00327407 -4.5423e-24)
(1.03161 -0.00300377 0)
(1.03003 -0.00187739 3.70593e-25)
(0.373549 0.170854 3.98171e-21)
(0.398205 0.172492 -2.81957e-19)
(0.419997 0.163658 -1.65931e-20)
(0.439793 0.150691 -1.13017e-20)
(0.456319 0.136373 -1.23645e-20)
(0.46872 0.120002 3.19177e-19)
(0.478055 0.101876 0)
(0.485448 0.0829647 3.45969e-19)
(0.491566 0.0638698 -3.48385e-19)
(0.497423 0.0450371 0)
(0.502906 0.0263186 3.55049e-19)
(0.509629 0.00828802 -7.10567e-19)
(0.518344 -0.0094844 3.55517e-19)
(0.529669 -0.0278248 0)
(0.544137 -0.0473178 0)
(0.562354 -0.0683654 5.4371e-21)
(0.584836 -0.0917402 0)
(0.61187 -0.118152 3.30572e-19)
(0.643503 -0.147882 -1.02496e-20)
(0.679615 -0.181045 -3.19562e-19)
(0.719513 -0.217218 2.9103e-19)
(0.761839 -0.255236 -2.90686e-19)
(0.804604 -0.293128 0)
(0.845458 -0.328142 0)
(0.882101 -0.357414 0)
(0.913033 -0.378935 0)
(0.937874 -0.391657 0)
(0.957089 -0.395499 0)
(0.971596 -0.391163 0)
(0.982398 -0.379952 0)
(0.990483 -0.363533 -6.1668e-22)
(0.996744 -0.343458 -2.45841e-20)
(1.00183 -0.321036 2.51437e-20)
(1.00612 -0.297365 0)
(1.00985 -0.273342 8.68104e-21)
(1.01319 -0.249661 -1.38739e-20)
(1.01624 -0.226835 5.25686e-21)
(1.01908 -0.205219 5.34408e-23)
(1.02176 -0.185033 -2.43449e-23)
(1.02429 -0.166388 -1.64501e-21)
(1.02669 -0.149309 1.64355e-21)
(1.02898 -0.133788 2.81888e-21)
(1.03118 -0.119781 -2.81633e-21)
(1.03329 -0.10722 0)
(1.0353 -0.0960133 3.90829e-23)
(1.03718 -0.0860436 -3.15435e-21)
(1.03892 -0.0771874 3.15102e-21)
(1.04048 -0.0693234 -1.4179e-22)
(1.04189 -0.0623405 2.66551e-21)
(1.04311 -0.0561364 -5.02728e-21)
(1.04418 -0.0506222 2.40053e-21)
(1.04507 -0.0457166 2.92023e-23)
(1.04582 -0.0413504 -9.45035e-23)
(1.04642 -0.0374589 2.44183e-23)
(1.04688 -0.0339874 0)
(1.04722 -0.0308853 6.86348e-22)
(1.04745 -0.0281081 -1.30239e-21)
(1.04756 -0.0256184 6.32366e-22)
(1.04759 -0.0233766 -1.45917e-23)
(1.0475 -0.0213603 1.30666e-23)
(1.04737 -0.0195285 -1.16829e-23)
(1.04713 -0.0178777 1.04284e-23)
(1.04687 -0.0163566 3.13469e-22)
(1.04649 -0.0149885 -3.1318e-22)
(1.04615 -0.0137008 -2.47789e-22)
(1.04564 -0.0125522 2.76506e-23)
(1.04524 -0.0114408 2.19709e-22)
(1.0446 -0.0104632 -6.85188e-23)
(1.04419 -0.00949138 8.15417e-23)
(1.04343 -0.00864363 -6.2787e-23)
(1.04304 -0.00779496 6.32114e-23)
(1.04214 -0.00703019 -4.76318e-23)
(1.04181 -0.00630437 8.76931e-23)
(1.04079 -0.00555466 -4.3478e-23)
(1.04054 -0.00496141 -1.52205e-23)
(1.03939 -0.00413599 2.73394e-23)
(1.03925 -0.00369382 -1.66476e-23)
(1.03795 -0.00269979 7.40692e-24)
(1.03791 -0.00244537 -4.87722e-25)
(1.03639 -0.00122888 9.58775e-26)
(0.541086 0.146508 2.47306e-19)
(0.545901 0.156103 0)
(0.556593 0.150828 2.28484e-21)
(0.57343 0.14138 -2.39697e-21)
(0.591128 0.129375 -3.21374e-19)
(0.60672 0.114293 6.54755e-19)
(0.620511 0.0972826 1.04188e-20)
(0.632948 0.0793735 7.30105e-21)
(0.644302 0.0609055 -3.49916e-19)
(0.655276 0.042176 0)
(0.666127 0.0234016 0)
(0.678617 0.00456473 1.41907e-21)
(0.692694 -0.0143274 3.66873e-19)
(0.708674 -0.0345673 -3.66187e-19)
(0.728053 -0.0561432 0)
(0.751209 -0.0794468 1.39764e-21)
(0.778247 -0.10515 0)
(0.809155 -0.133772 0)
(0.84356 -0.16547 0)
(0.880708 -0.200086 -3.18309e-19)
(0.919288 -0.236941 6.20317e-19)
(0.957564 -0.274809 -3.0204e-19)
(0.993516 -0.311748 0)
(1.0252 -0.345348 2.40448e-19)
(1.05093 -0.373433 -2.40014e-19)
(1.06979 -0.394259 0)
(1.0821 -0.406792 0)
(1.08897 -0.410888 -6.0994e-22)
(1.0917 -0.407048 1.1789e-19)
(1.09136 -0.396321 -1.17706e-19)
(1.08888 -0.380214 6.31862e-22)
(1.08512 -0.360158 0)
(1.08075 -0.337429 2.40352e-20)
(1.0762 -0.313167 -2.39994e-20)
(1.07177 -0.288334 0)
(1.06763 -0.263695 9.64377e-21)
(1.06392 -0.239829 -9.61221e-21)
(1.06072 -0.217142 -4.24257e-21)
(1.05804 -0.19589 4.24295e-21)
(1.05586 -0.176211 -9.17015e-22)
(1.05415 -0.15815 9.50505e-22)
(1.05286 -0.141686 0)
(1.05195 -0.126774 1.4748e-24)
(1.05133 -0.113352 0)
(1.05097 -0.101336 1.85383e-21)
(1.0508 -0.0906181 1.38055e-22)
(1.05078 -0.0810836 -2.03347e-21)
(1.05084 -0.0726203 -1.93685e-21)
(1.05095 -0.0651173 1.93568e-21)
(1.05108 -0.0584659 -3.44392e-23)
(1.05119 -0.052568 1.71402e-21)
(1.05128 -0.0473336 -1.60193e-22)
(1.05133 -0.0426842 -1.53924e-21)
(1.05133 -0.0385489 -2.4658e-23)
(1.05128 -0.0348657 8.2036e-24)
(1.05117 -0.0315806 1.08044e-21)
(1.05102 -0.028643 -1.08557e-21)
(1.0508 -0.0260148 -1.63809e-23)
(1.05056 -0.02365 9.14045e-24)
(1.05024 -0.0215287 -3.65781e-22)
(1.04991 -0.0196016 3.6384e-22)
(1.0495 -0.0178715 -1.04792e-23)
(1.04912 -0.0162756 -3.57169e-24)
(1.04862 -0.014848 0)
(1.04819 -0.0135007 0)
(1.04761 -0.0123075 0)
(1.04717 -0.011148 1.57758e-22)
(1.0465 -0.0101363 -1.60429e-22)
(1.04608 -0.0091273 4.53869e-24)
(1.04531 -0.00825208 -3.98609e-24)
(1.04493 -0.00738024 4.84844e-23)
(1.04407 -0.00659067 -4.92918e-23)
(1.04376 -0.00586064 -1.00244e-24)
(1.04281 -0.00508317 -2.89597e-23)
(1.04259 -0.00450718 4.01108e-23)
(1.04155 -0.0036412 -1.18855e-23)
(1.04144 -0.00323053 6.95638e-24)
(1.04031 -0.00217353 -7.76222e-24)
(1.04028 -0.00194587 1.16148e-24)
(1.03899 -0.000642062 -5.43515e-25)
(0.810591 0.137777 0)
(0.79419 0.143764 0)
(0.785388 0.14414 0)
(0.786873 0.143227 0)
(0.793366 0.137844 -1.2663e-21)