/*--------------------------------*- C++ -*----------------------------------*\
| =========                 |                                                 |
| \\      /  F ield         | OpenFOAM: The Open Source CFD Toolbox           |
|  \\    /   O peration     | Version:  4.1                                   |
|   \\  /    A nd           | Web:      www.OpenFOAM.org                      |
|    \\/     M anipulation  |                                                 |
\*---------------------------------------------------------------------------*/
FoamFile
{
    version     2.0;
    format      ascii;
    class       surfaceScalarField;
    location    "10";
    object      phi;
}
// * * * * * * * * * * * * * * * * * * * * * * * * * * * * * * * * * * * * * //

dimensions      [0 3 -1 0 0 0 0];

internalField   nonuniform List<scalar> 
7430
(
-0.000341929
0.00239511
-0.00205318
-0.000102794
0.0040853
-0.00432444
0.00132654
0.00317859
-0.00460792
0.00467272
-0.00022969
-0.00311649
0.0106188
-0.00595929
1.31653e-05
0.0195346
-0.0134745
0.00455883
0.0306992
-0.0214875
0.0103229
0.0440295
-0.0292565
0.0159262
0.0583968
-0.0373596
0.0229923
-0.0417178
0.0286686
0.0714459
-0.000439211
0.00283432
-1.29187e-06
0.00364738
0.00248285
0.000694448
0.00821626
-0.0059631
0.0175889
-0.0153319
0.0297583
-0.0256439
0.0433371
-0.0350663
0.0574592
-0.0433785
0.0693514
-0.0492518
-0.0534265
0.0810601
-0.000287571
0.00312189
0.00091577
0.00244404
0.0054894
-0.00387918
0.0144602
-0.0149339
0.0268088
-0.0276806
0.0403958
-0.0392309
0.0535691
-0.0482397
0.0647164
-0.0545259
0.0735864
-0.0581218
-0.060733
0.0808929
4.38137e-05
0.00307808
0.00258964
-0.000101784
0.0100399
-0.0113294
0.0218677
-0.0267617
0.0351896
-0.0410025
0.0475218
-0.0515631
0.0575205
-0.0582384
0.0648942
-0.0618995
0.0703799
-0.0636075
-0.0642526
0.0738995
0.000443978
0.0026341
0.00500041
-0.00465821
0.0153807
-0.0217097
0.0282563
-0.0396373
0.0400983
-0.0528445
0.0493027
-0.0607675
0.0558316
-0.0647673
0.0603945
-0.0664624
0.0636332
-0.0668462
-0.0669779
0.0663585
0.00100302
0.00163109
0.00811282
-0.011768
0.0201295
-0.0337264
0.0318397
-0.0513475
0.0408417
-0.0618465
0.047023
-0.0669488
0.0511907
-0.068935
0.0540995
-0.0693712
0.0564885
-0.0692353
-0.0689787
0.0584893
0.00195405
-0.000322959
0.0113501
-0.021164
0.0229906
-0.045367
0.0323302
-0.0606871
0.0386396
-0.0681559
0.0426718
-0.070981
0.0453193
-0.0715825
0.0472794
-0.0713312
0.0488813
-0.0708372
-0.0702905
0.0501931
0.00328718
-0.00361014
0.0138088
-0.0316856
0.0237208
-0.055279
0.0305985
-0.0675648
0.034797
-0.0723544
0.0373077
-0.0734917
0.0389564
-0.0732312
0.0401906
-0.0725654
0.0412212
-0.0718678
-0.0712345
0.0421653
0.00471317
-0.00832331
0.0148372
-0.0418096
0.02273
-0.0631718
0.0274964
-0.0723312
0.0300921
-0.0749501
0.0315477
-0.0749474
0.0324773
-0.0741608
0.0331678
-0.0732559
0.0337224
-0.0724224
-0.0716524
0.0341404
0.00583892
-0.0141622
0.0146043
-0.050575
0.0205312
-0.0690987
0.0236104
-0.0754104
0.0250357
-0.0763754
0.0257078
-0.0756194
0.0260635
-0.0745165
0.0262583
-0.0734508
0.0263235
-0.0724876
0.0263189
-0.0716478
-0.00196839
0.00196839
-0.00526277
0.00329438
-0.00900189
0.00373912
-0.0129575
0.00395557
-0.0170907
0.00413318
-0.0213917
0.004301
-0.0258484
0.00445679
-0.0304493
0.0046009
-0.035188
0.00473867
0.00489562
-0.0400836
-0.00164822
0.00361662
-0.0045204
0.00616656
-0.00782871
0.00704742
-0.0113066
0.00743348
-0.014885
0.00771158
-0.018542
0.00795799
-0.0222604
0.00817519
-0.0260226
0.0083631
-0.0298183
0.00853435
0.00873118
-0.0336539
-0.00107543
0.00469204
-0.00318681
0.00827794
-0.00570565
0.00956626
-0.0083283
0.0100561
-0.0109333
0.0103165
-0.013474
0.0104987
-0.0159263
0.0106276
-0.018269
0.0107058
-0.0204756
0.010741
0.0107898
-0.0225343
-0.000389811
0.00508186
-0.00152127
0.0094094
-0.00301503
0.01106
-0.00455289
0.011594
-0.00595368
0.0117173
-0.00713621
0.0116812
-0.00806595
0.0115573
-0.0087311
0.011371
-0.00910865
0.0111185
0.010801
-0.00911979
0.000253264
0.00482859
0.000151535
0.00951113
-0.000226595
0.0114382
-0.00059382
0.0119612
-0.000734359
0.0118579
-0.000530035
0.0114769
7.48319e-05
0.0109524
0.00109825
0.0103476
0.00251201
0.00970474
0.00894417
0.0043688
0.000702511
0.00412608
0.00148158
0.00873207
0.00215685
0.0107629
0.00290385
0.0112142
0.00393435
0.0108274
0.00538932
0.0100219
0.00734014
0.0090016
0.00984406
0.00784364
0.012783
0.00676577
0.00526259
0.0164646
0.000874425
0.00325165
0.00220057
0.00740592
0.00365185
0.0093116
0.00528207
0.009584
0.00724146
0.00886799
0.00965821
0.00760517
0.012608
0.00605179
0.0162214
0.00423022
0.0201844
0.00280284
3.87346e-05
0.0254082
0.000761957
0.0024897
0.0021836
0.00598429
0.00395894
0.00753626
0.00605055
0.00749239
0.00853845
0.00638008
0.0115394
0.00460419
0.0152101
0.00238114
0.0197049
-0.000264556
0.0246741
-0.00216643
-0.00732563
0.0320385
0.000429665
0.00206003
0.00152592
0.00488803
0.0031503
0.00591188
0.00527721
0.00536548
0.00803451
0.00362277
0.0116729
0.000965797
0.0166116
-0.00255755
0.0228287
-0.00648171
0.0308335
-0.0101712
-0.0173632
0.0408711
6.84798e-06
0.000570443
0.0018744
0.00412338
0.00775932
0.0132839
0.0210493
0.0304937
0.0433148
0.0546203
-0.0448742
0.00479053
-0.0488959
0.00402172
-0.0525286
0.00363272
-0.0555899
0.00306124
-0.0582344
0.00264455
-0.0604321
0.00219771
-0.0622636
0.00183149
-0.06374
0.00147638
-0.0649206
0.00118065
-0.0658306
0.000909937
-0.0664853
0.000654683
-0.0668771
0.000391813
-0.0669769
9.98289e-05
-0.066817
-0.000159882
-0.0663914
-0.0004256
-0.0656553
-0.000736105
-0.0645634
-0.00109186
-0.0630624
-0.00150103
-0.0610944
-0.00196796
-0.0586029
-0.0024915
-0.0555353
-0.00306766
-0.0518572
-0.00367809
-0.0475619
-0.00429525
-0.0426789
-0.00488302
-0.0372658
-0.00541317
-0.0314444
-0.00582136
-0.0253307
-0.00611368
-0.0190566
-0.00627417
-0.0127809
-0.0062757
-0.00660095
-0.00617991
-0.000624934
-0.00597601
0.00508041
-0.00570534
0.0104623
-0.00538187
0.015493
-0.00503068
0.0201604
-0.00466742
0.0244653
-0.00430494
0.0284165
-0.0039512
0.0320275
-0.00361099
0.0353166
-0.00328915
0.0383051
-0.00298848
0.0410155
-0.00271035
0.0434707
-0.00245521
0.0456935
-0.00222276
0.0477055
-0.00201208
0.0495274
-0.00182186
0.051178
-0.00165059
0.0526747
-0.00149667
0.0540331
-0.00135848
0.0552676
-0.00123451
0.0563909
-0.00112326
0.0574143
-0.0010234
0.058348
-0.000933656
0.0592009
-0.000852942
0.0599811
-0.00078017
0.0606956
-0.000714506
0.0613506
-0.000655031
0.0619517
-0.000601132
0.0625038
-0.000552026
0.0630111
-0.000507293
0.0634773
-0.000466259
0.063906
-0.000428651
0.0642999
-0.000393903
0.0646617
-0.000361832
0.0649937
-0.000332011
0.065298
-0.000304254
0.0655763
-0.000278336
0.0658303
-0.000253966
0.0660614
-0.00023117
0.066271
-0.000209505
0.0664601
-0.000189159
0.0666298
-0.000169732
0.066781
-0.00015111
0.0669147
-0.000133728
0.0670306
-0.000115884
0.0671313
-0.000100759
0.0672137
-8.24088e-05
0.0672841
-7.03901e-05
0.0673341
-4.99693e-05
0.0673768
-4.26741e-05
-1.83048e-05
-0.0380102
0.00914692
-0.0416372
0.00764873
-0.0448279
0.00682335
-0.0475315
0.00576484
-0.0498192
0.00493225
-0.051712
0.00409057
-0.0532522
0.00337166
-0.0544707
0.0026949
-0.0553969
0.00210685
-0.0560747
0.00158768
-0.0565269
0.00110686
-0.0567462
0.000611116
-0.0566944
4.80896e-05
-0.0564459
-0.000408451
-0.0559453
-0.000926107
-0.0551655
-0.00151594
-0.0540672
-0.0021902
-0.052601
-0.00296722
-0.0507077
-0.00386123
-0.0483338
-0.00486539
-0.0454234
-0.00597808
-0.0419373
-0.00716425
-0.0378612
-0.00837135
-0.033222
-0.00952222
-0.0280791
-0.010556
-0.022549
-0.0113514
-0.0167459
-0.0119168
-0.0107847
-0.0122354
-0.0048153
-0.0122451
0.000996538
-0.0119918
0.00659888
-0.0115784
0.0119338
-0.0110402
0.0169549
-0.010403
0.0216332
-0.00970901
0.0259581
-0.00899226
0.0299315
-0.00827842
0.0335652
-0.00758488
0.0368753
-0.00692106
0.0398797
-0.00629352
0.0425992
-0.00570801
0.045056
-0.00516721
0.0472727
-0.00467188
0.0492713
-0.00422134
0.0510729
-0.00381367
0.0526972
-0.00344623
0.0541626
-0.00311594
0.0554856
-0.00281966
0.0566813
-0.00255415
0.0577631
-0.00231639
0.0587433
-0.00210342
0.0596325
-0.00191264
0.0604404
-0.00174149
0.0611753
-0.00158787
0.0618448
-0.00144962
0.0624554
-0.00132511
0.0630129
-0.00121255
0.0635225
-0.00111072
0.0639886
-0.00101812
0.0644152
-0.000933903
0.0648057
-0.000856774
0.0651632
-0.000786186
0.0654904
-0.000721064
0.0657896
-0.000661012
0.0660628
-0.000605257
0.0663119
-0.000553368
0.0665386
-0.000505001
0.0667441
-0.000459482
0.0669299
-0.000417001
0.067097
-0.000376544
0.0672465
-0.000338661
0.0673791
-0.000302386
0.0674957
-0.000267691
0.0675972
-0.000235225
0.0676832
-0.000201871
0.0677561
-0.000173641
0.0678128
-0.00013912
0.0678592
-0.00011675
0.0678872
-7.80385e-05
0.0679092
-6.46158e-05
-1.84163e-05
-0.0260616
0.0126743
-0.0290687
0.0106558
-0.031611
0.00936563
-0.0338106
0.00796447
-0.0356236
0.00674528
-0.0371112
0.00557819
-0.0382794
0.0045398
-0.0391676
0.00358314
-0.0397925
0.00273177
-0.0401746
0.00196975
-0.0403681
0.00130034
-0.0403602
0.000603266
-0.0401816
-0.000130577
-0.0398057
-0.000784322
-0.0392266
-0.00150524
-0.0384247
-0.00231786
-0.0373643
-0.00325057
-0.0360013
-0.00433017
-0.0342782
-0.00558437
-0.0321467
-0.00699689
-0.0295477
-0.00857704
-0.0264354
-0.0102766
-0.0227785
-0.0120283
-0.018587
-0.0137138
-0.0139164
-0.0152266
-0.00884085
-0.016427
-0.00351395
-0.0172437
0.0018186
-0.0175679
0.00711052
-0.017537
0.0123236
-0.0172048
0.0173536
-0.0166084
0.0221246
-0.0158112
0.0265961
-0.0148745
0.030745
-0.0138579
0.0345629
-0.0128103
0.0380532
-0.0117687
0.0412275
-0.0107592
0.0441037
-0.00979723
0.0467007
-0.00889055
0.0490377
-0.00804496
0.0511353
-0.00726486
0.0530148
-0.00655132
0.0546967
-0.00590328
0.0562009
-0.0053179
0.0575459
-0.00479122
0.0587487
-0.00431873
0.0598248
-0.00389575
0.0607882
-0.00351755
0.0616515
-0.00317965
0.0624258
-0.00287773
0.0631211
-0.00260796
0.0637462
-0.0023666
0.0643089
-0.00215054
0.0648159
-0.00195666
0.0652734
-0.00178256
0.0656864
-0.00162562
0.0660598
-0.00148406
0.0663974
-0.00135571
0.0667028
-0.0012393
0.066979
-0.00113302
0.0672288
-0.00103597
0.0674544
-0.000946721
0.067658
-0.000864521
0.0678412
-0.000788493
0.0680055
-0.000717697
0.0681526
-0.000652037
0.0682831
-0.00059005
0.0683987
-0.000532603
0.0684997
-0.00047756
0.0685876
-0.0004265
0.0686624
-0.000377174
0.0687251
-0.000330465
0.0687762
-0.000286315
0.0688156
-0.000241288
0.0688449
-0.000202886
0.0688617
-0.000155929
0.0688704
-0.000125449
0.0688647
-7.23671e-05
0.0688541
-5.39794e-05
9.4817e-06
-0.0115208
0.0150753
-0.0138027
0.0129377
-0.0157316
0.0112945
-0.0174626
0.00969548
-0.0188967
0.0081793
-0.0200729
0.00675444
-0.020984
0.00545091
-0.0216529
0.00425201
-0.0220922
0.00317106
-0.0223175
0.00219506
-0.0223492
0.00133205
-0.0222171
0.000471159
-0.0219491
-0.000398588
-0.0215145
-0.00121893
-0.020915
-0.00210472
-0.0201368
-0.00309603
-0.0191496
-0.00423783
-0.017915
-0.00556475
-0.0163863
-0.00711308
-0.0144949
-0.00888829
-0.0122085
-0.0108634
-0.00947683
-0.0130083
-0.00626869
-0.0152364
-0.00255131
-0.0174312
0.00145805
-0.019236
0.00567861
-0.0206475
0.0101172
-0.0216823
0.0147115
-0.0221623
0.0193342
-0.0221597
0.0238598
-0.0217304
0.0282046
-0.0209532
0.0323137
-0.0199203
0.0361552
-0.018716
0.0397118
-0.0174145
0.0429777
-0.0160761
0.0459559
-0.0147469
0.048656
-0.0134592
0.051093
-0.0122342
0.0532852
-0.0110828
0.0552498
-0.0100095
0.057004
-0.00901901
0.058566
-0.00811331
0.0599539
-0.00729119
0.0611851
-0.00654911
0.062276
-0.00588209
0.0632416
-0.00528439
0.0640959
-0.00475006
0.0648514
-0.00427303
0.0655193
-0.00384758
0.0661098
-0.00346821
0.0666318
-0.00312998
0.0670933
-0.00282811
0.0675014
-0.00255861
0.0678622
-0.00231746
0.0681812
-0.00210155
0.0684632
-0.00190757
0.0687122
-0.00173316
0.0689321
-0.0015756
0.069126
-0.00143315
0.0692966
-0.00130363
0.0694463
-0.00118565
0.0695773
-0.0010777
0.0696911
-0.000978397
0.0697897
-0.000887093
0.069874
-0.000801997
0.0699457
-0.000723686
0.0700051
-0.000649443
0.0700538
-0.000581372
0.0700919
-0.000515611
0.0701209
-0.00045546
0.0701404
-0.000396693
0.0701517
-0.000341843
0.0701548
-0.000289412
0.0701499
-0.00023639
0.070138
-0.000190907
0.0701171
-0.0001351
0.0700907
-9.90518e-05
0.0700536
-3.52571e-05
0.0700131
-1.34668e-05
6.30456e-05
0.00324151
0.0162026
0.00185358
0.0143256
0.000480809
0.0126673
-0.000804363
0.0109806
-0.00196371
0.00933865
-0.00297708
0.00776781
-0.00379932
0.00627316
-0.00442194
0.00487463
-0.00484519
0.00359432
-0.00507854
0.00242842
-0.0051151
0.00136861
-0.00500219
0.000358252
-0.00474761
-0.000653163
-0.00432892
-0.00163762
-0.00375092
-0.00268272
-0.00300412
-0.00384283
-0.00206503
-0.00517691
-0.000880873
-0.00674891
0.000510145
-0.0085041
0.00212269
-0.0105008
0.00406214
-0.0128029
0.00636255
-0.0153087
0.00902809
-0.0179019
0.0120178
-0.0204208
0.0153553
-0.0225736
0.0189925
-0.0242847
0.0227744
-0.0254642
0.0266373
-0.0260251
0.0304754
-0.0259978
0.0342075
-0.0254625
0.0377788
-0.0245245
0.0411533
-0.0232948
0.0443095
-0.0218723
0.0472357
-0.0203406
0.0499272
-0.0187677
0.0523856
-0.0172052
0.0546169
-0.0156906
0.0566316
-0.0142489
0.0584434
-0.0128947
0.0600674
-0.0116335
0.0615161
-0.0104678
0.0628038
-0.009401
0.0639448
-0.00843219
0.0649532
-0.00755744
0.0658422
-0.00677112
0.0666244
-0.00606663
0.0673114
-0.00543704
0.0679136
-0.00487524
0.0684406
-0.00437455
0.0689009
-0.0039285
0.0693022
-0.0035313
0.0696514
-0.00317733
0.0699546
-0.00286183
0.0702173
-0.00258012
0.0704442
-0.00232843
0.0706395
-0.0021029
0.070807
-0.00190064
0.0709499
-0.00171853
0.0710711
-0.00155432
0.0711731
-0.00140562
0.0712579
-0.00127049
0.0713277
-0.00114749
0.0713838
-0.00103446
0.071428
-0.000931256
0.0714609
-0.000834928
0.0714843
-0.000747128
0.0714983
-0.00066346
0.0715047
-0.000587748
0.071503
-0.000513934
0.0714951
-0.000447533
0.0714803
-0.000381907
0.0714601
-0.000321652
0.0714343
-0.000263575
0.0714031
-0.000205146
0.0713674
-0.000155225
0.0713253
-9.3058e-05
0.07128
-5.37237e-05
0.0712266
1.81404e-05
0.0711712
4.18978e-05
0.000128653
0.0166263
0.0160409
0.0162099
0.014742
0.0154922
0.013385
0.0146421
0.0118308
0.013741
0.0102398
0.0128564
0.0086524
0.0120528
0.00707673
0.0113696
0.00555785
0.0108296
0.00413427
0.010446
0.00281199
0.0102247
0.00158996
0.0101716
0.000411294
0.0102837
-0.000765179
0.0105634
-0.00191739
0.0110122
-0.00313153
0.0116341
-0.00446471
0.0124395
-0.00598232
0.0134373
-0.00774669
0.0146813
-0.00974811
0.0162208
-0.0120403
0.0180425
-0.0146246
0.0201515
-0.0174177
0.0225332
-0.0202836
0.0251403
-0.023028
0.0279753
-0.0254085
0.0309586
-0.0272681
0.0339992
-0.0285047
0.0370398
-0.0290657
0.0400245
-0.0289826
0.0429101
-0.0283481
0.0456693
-0.0272837
0.0482843
-0.0259097
0.0507426
-0.0243306
0.0530359
-0.0226339
0.0551589
-0.0208907
0.0571102
-0.0191565
0.0588915
-0.0174719
0.0605077
-0.0158652
0.0619672
-0.0143541
0.0632805
-0.0129468
0.0644575
-0.0116448
0.0655074
-0.0104509
0.0664405
-0.0093652
0.0672668
-0.00838383
0.0679966
-0.00750091
0.0686394
-0.0067094
0.0692041
-0.00600172
0.0696989
-0.00537007
0.0701314
-0.00480705
0.0705084
-0.00430548
0.070836
-0.00385892
0.0711198
-0.00346115
0.0713649
-0.00310684
0.0715755
-0.00279078
0.0717558
-0.00250871
0.0719093
-0.00225638
0.072039
-0.0020304
0.0721479
-0.00182744
0.0722383
-0.0016447
0.0723125
-0.00147982
0.0723722
-0.00133016
0.0724193
-0.0011946
0.0724549
-0.00107004
0.0724807
-0.000957099
0.0724972
-0.000851441
0.0725062
-0.000756079
0.0725074
-0.000664701
0.0725028
-0.000583096
0.0724917
-0.000502852
0.072476
-0.000431794
0.072455
-0.000360956
0.0724302
-0.000296801
0.0724014
-0.000234858
0.0723689
-0.000172587
0.0723337
-0.000120028
0.0722936
-5.29939e-05
0.0722522
-1.22813e-05
0.0722039
6.64521e-05
0.072155
9.08021e-05
0.000186504
0.0269258
0.0145233
0.0275515
0.0141163
0.0277
0.0132365
0.027524
0.0120068
0.0270771
0.0106866
0.0264613
0.00926819
0.0257776
0.00776044
0.0250988
0.00623663
0.0244822
0.00475093
0.0239706
0.00332355
0.0236082
0.00195236
0.0233978
0.000621677
0.0233517
-0.000719077
0.0234943
-0.00205999
0.0238398
-0.00347701
0.0243945
-0.00501944
0.0251628
-0.00675059
0.0261468
-0.00873069
0.0273795
-0.0109808
0.0288626
-0.0135234
0.0305746
-0.0163366
0.0324853
-0.0193284
0.0345534
-0.0223517
0.0367247
-0.0251993
0.0389565
-0.0276403
0.0411992
-0.0295108
0.0434115
-0.0307171
0.0455769
-0.031231
0.0476841
-0.0310899
0.0497237
-0.0303876
0.0516901
-0.0292501
0.0535779
-0.0277975
0.0553787
-0.0261315
0.0570834
-0.0243386
0.0586837
-0.022491
0.0601733
-0.0206461
0.0615492
-0.0188477
0.0628108
-0.0171268
0.0639607
-0.015504
0.0650044
-0.0139905
0.0659495
-0.0125899
0.0668016
-0.011303
0.0675665
-0.0101301
0.0682503
-0.0090677
0.0688596
-0.00811016
0.0694008
-0.0072506
0.0698803
-0.00648125
0.0703042
-0.00579397
0.0706781
-0.00518095
0.0710072
-0.00463456
0.0712962
-0.00414789
0.0715493
-0.0037143
0.0717705
-0.00332804
0.0719633
-0.00298357
0.0721308
-0.00267621
0.0722759
-0.00240149
0.0724011
-0.00215558
0.0725087
-0.00193508
0.0726007
-0.00173666
0.072679
-0.00155813
0.0727449
-0.0013961
0.0728003
-0.00124996
0.0728458
-0.00111556
0.0728832
-0.000994478
0.0729126
-0.000880866
0.0729358
-0.00077924
0.0729524
-0.000681323
0.0729642
-0.000594881
0.0729707
-0.000509297
0.0729733
-0.000434446
0.0729719
-0.000359514
0.0729673
-0.000292188
0.0729601
-0.000227711
0.0729496
-0.000162049
0.0729383
-0.000108721
0.0729223
-3.7078e-05
0.072907
3.09991e-06
0.0728849
8.85336e-05
0.0728635
0.000112158
0.000216546
0.034187
0.0123748
0.0354983
0.0128049
0.0364002
0.0123346
0.0369075
0.0114996
0.0370411
0.0105531
0.0369006
0.00940865
0.0365717
0.00808936
0.0361271
0.00668125
0.0356469
0.0052311
0.035199
0.0037715
0.0347917
0.00235959
0.0345625
0.000850944
0.0345406
-0.000697171
0.0346944
-0.00221385
0.0350715
-0.00385412
0.0356807
-0.00562862
0.036521
-0.00759089
0.0375797
-0.00978943
0.0388406
-0.0122416
0.0402647
-0.0149475
0.0417963
-0.0178682
0.0433854
-0.0209175
0.0449781
-0.0239444
0.0465196
-0.0267408
0.047982
-0.0291026
0.0493635
-0.0308923
0.050678
-0.0320316
0.0519514
-0.0325044
0.0532077
-0.0323462
0.0544606
-0.0316405
0.0557144
-0.030504
0.0569644
-0.0290474
0.0581986
-0.0273657
0.0594025
-0.0255425
0.0605625
-0.023651
0.0616673
-0.0217509
0.0627089
-0.0198892
0.0636822
-0.0181001
0.0645851
-0.0164069
0.065418
-0.0148234
0.0661839
-0.0133558
0.0668866
-0.0120057
0.0675293
-0.0107728
0.0681145
-0.00965286
0.0686448
-0.00864047
0.0691237
-0.00772948
0.0695548
-0.00691242
0.0699422
-0.00618132
0.0702896
-0.00552838
0.0706009
-0.00494587
0.0708796
-0.00442661
0.0711291
-0.00396376
0.0713523
-0.00355123
0.071552
-0.0031833
0.0717307
-0.00285493
0.0718908
-0.00256156
0.0720342
-0.00229895
0.0721629
-0.00206376
0.0722783
-0.00185211
0.0723823
-0.00166208
0.0724757
-0.00148957
0.0725603
-0.00133454
0.0726365
-0.00119177
0.0727059
-0.00106384
0.0727685
-0.000943457
0.0728258
-0.000836585
0.0728776
-0.000733126
0.0729253
-0.000642616
0.0729687
-0.000552623
0.0730087
-0.00047446
0.0730457
-0.000396481
0.0730797
-0.000326263
0.0731124
-0.000260382
0.0731419
-0.000191568
0.073172
-0.000138781
0.0731977
-6.28043e-05
0.0732252
-2.43767e-05
0.0732462
6.74924e-05
0.0732691
8.93207e-05
0.000202421
0.0420212
0.0112248
0.0430121
0.011814
0.043909
0.0114377
0.0445029
0.0109057
0.0448293
0.0102266
0.0449559
0.00928205
0.04492
0.0081253
0.0447681
0.00683308
0.0445589
0.00544031
0.0443584
0.00397198
0.0442638
0.00245419
0.044242
0.000872823
0.0443934
-0.000848581
0.0447147
-0.00253515
0.0452438
-0.00438327
0.045981
-0.00636576
0.0469112
-0.00852115
0.0480027
-0.0108809
0.0492101
-0.0134491
0.0504686
-0.016206
0.0516958
-0.0190953
0.052802
-0.0220237
0.0537167
-0.0248591
0.0544261
-0.0274503
0.0549838
-0.0296602
0.0554482
-0.0313567
0.0558792
-0.0324626
0.0563309
-0.0329561
0.0568381
-0.0328534
0.0574148
-0.0322172
0.058064
-0.0311532
0.058775
-0.0297585
0.0595306
-0.0281212
0.0603121
-0.026324
0.0611026
-0.0244415
0.0618878
-0.0225361
0.0626563
-0.0206577
0.0633995
-0.0188433
0.0641112
-0.0171186
0.0647872
-0.0154995
0.065426
-0.0139946
0.0660271
-0.0126068
0.0665897
-0.0113354
0.0671139
-0.010177
0.0676002
-0.00912675
0.0680495
-0.00817884
0.0684634
-0.00732633
0.0688435
-0.00656144
0.0691919
-0.00587678
0.069511
-0.0052649
0.0698031
-0.00471871
0.0700707
-0.00423138
0.0703161
-0.00379668
0.0705417
-0.00340883
0.0707493
-0.00306253
0.0709409
-0.00275322
0.0711183
-0.00247629
0.071283
-0.00222849
0.0714364
-0.00200548
0.0715799
-0.00180562
0.0717144
-0.00162411
0.0718414
-0.00146149
0.0719612
-0.00131157
0.0720752
-0.00117785
0.0721835
-0.00105174
0.0722873
-0.00094044
0.0723866
-0.000832367
0.0724824
-0.000738402
0.0725746
-0.000644849
0.072664
-0.000563855
0.0727512
-0.000483676
0.0728357
-0.000410794
0.0729199
-0.000344541
0.073001
-0.000272749
0.0730838
-0.000221577
0.0731625
-0.00014148
0.0732441
-0.000105951
0.0733194
-7.85535e-06
0.0733974
1.13379e-05
0.0001329
0.0540239
0.0118211
0.0544285
0.0114095
0.0547289
0.0111372
0.0549151
0.0107196
0.0550464
0.0100953
0.055091
0.00923749
0.055042
0.00817433
0.0549284
0.00694663
0.0547894
0.0055793
0.0546665
0.00409494
0.0546035
0.00251719
0.0546597
0.000816599
0.0547865
-0.000975352
0.0551074
-0.00285608
0.055588
-0.00486388
0.0562214
-0.00699916
0.0569837
-0.00928339
0.0578318
-0.011729
0.0587102
-0.0143274
0.0595523
-0.0170482
0.0602906
-0.0198336
0.0608644
-0.0225976
0.0612337
-0.0252283
0.0613853
-0.0276019
0.0613336
-0.0296086
0.0611299
-0.031153
0.0608415
-0.0321742
0.0605382
-0.0326528
0.0602955
-0.0326107
0.0601749
-0.0320967
0.0601834
-0.0311616
0.0603076
-0.0298827
0.0605316
-0.0283453
0.0608394
-0.0266318
0.0612149
-0.024817
0.0616431
-0.0229643
0.06211
-0.0211247
0.0626031
-0.0193364
0.063111
-0.0176265
0.0636244
-0.0160128
0.0641353
-0.0145056
0.0646376
-0.0131091
0.0651264
-0.0118242
0.0655981
-0.0106487
0.06605
-0.00957863
0.0664799
-0.00860881
0.0668867
-0.00773312
0.0672701
-0.00694479
0.0676303
-0.00623702
0.0679683
-0.00560287
0.0682851
-0.00503554
0.0685822
-0.00452848
0.068861
-0.00407549
0.0691231
-0.00367094
0.06937
-0.0033094
0.0696032
-0.00298641
0.069824
-0.0026971
0.0700339
-0.00243838
0.0702339
-0.00220549
0.0704254
-0.00199708
0.070609
-0.00180776
0.0707861
-0.00163858
0.0709571
-0.00148251
0.0711231
-0.00134384
0.0712842
-0.00121288
0.0714416
-0.00109782
0.0715952
-0.00098597
0.0717458
-0.000889064
0.0718938
-0.000792776
0.0720392
-0.000709307
0.0721833
-0.000627731
0.072325
-0.000552481
0.0724671
-0.000486643
0.0726065
-0.000412216
0.0727484
-0.000363401
0.0728865
-0.000279627
0.0730282
-0.000247675
0.0731644
-0.00014404
0.0733036
-0.000127829
1.39434e-06
0.0790111
0.0145094
-0.0816994
0.0762708
0.0141498
0.0739956
0.0134124
0.0722477
0.0124674
0.0710356
0.0113075
0.07029
0.00998306
0.0699136
0.00855069
0.0698343
0.007026
0.0699977
0.00541585
0.0703621
0.00373051
0.0709225
0.00195683
0.0716861
5.29946e-05
0.0725485
-0.00183769
0.0736047
-0.00391231
0.0747914
-0.00605063
0.0760905
-0.00829818
0.0774703
-0.0106633
0.078881
-0.0131397
0.0802605
-0.0157069
0.0815384
-0.0183261
0.0826426
-0.0209378
0.0835064
-0.0234614
0.0840805
-0.0258024
0.0843404
-0.0278619
0.0842825
-0.0295506
0.083926
-0.0307965
0.0833061
-0.0315543
0.0824655
-0.0318122
0.0814475
-0.0315927
0.0802997
-0.030949
0.0790803
-0.0299422
0.0778406
-0.028643
0.0766245
-0.0271292
0.0754679
-0.0254752
0.0743967
-0.0237457
0.0734264
-0.0219941
0.072564
-0.0202622
0.0718091
-0.0185815
0.0711567
-0.0169741
0.0705985
-0.0154547
0.0701249
-0.014032
0.0697258
-0.01271
0.0693913
-0.0114896
0.0691119
-0.0103693
0.0688791
-0.00934586
0.0686852
-0.0084149
0.0685234
-0.0075713
0.0683879
-0.00680924
0.0682735
-0.00612269
0.0681762
-0.00550551
0.0680922
-0.00495162
0.0680189
-0.00445513
0.0679538
-0.00401039
0.0678951
-0.00361229
0.0678415
-0.00325571
0.0677916
-0.0029366
0.0677448
-0.00265023
0.0677003
-0.00239389
0.0676575
-0.00216273
0.0676163
-0.00195586
0.0675761
-0.0017676
0.0675371
-0.00159952
0.0674987
-0.00144414
0.0674612
-0.00130636
0.0674243
-0.00117591
0.0673881
-0.00106164
0.0673524
-0.000950275
0.0673174
-0.000854039
0.0672831
-0.000758483
0.0672493
-0.000675498
0.0672168
-0.000595259
0.0671845
-0.000520229
0.0671547
-0.000456781
0.0671246
-0.000382105
0.0670981
-0.000336897
0.0670704
-0.000251954
0.0670469
-0.000224233
0.067021
-0.000118116
0.0669984
-0.000105184
2.81043e-05
0.0936298
0.0159186
-0.0950391
0.0922729
0.0155067
0.0910023
0.014683
0.0898546
0.0136151
0.0888493
0.0123128
0.0880097
0.0108227
0.0873561
0.00920434
0.0868984
0.00748364
0.0866345
0.00567981
0.0865707
0.0037943
0.0866779
0.00184958
0.086866
-0.000135044
0.0873173
-0.00228903
0.087869
-0.00446403
0.0885253
-0.00670692
0.0892516
-0.0090245
0.0900036
-0.0114153
0.0907282
-0.0138643
0.0913658
-0.0163445
0.0918545
-0.0188148
0.0921347
-0.021218
0.092156
-0.0234827
0.0918835
-0.0255298
0.0913026
-0.027281
0.0904189
-0.028667
0.089259
-0.0296365
0.0878672
-0.0301624
0.0863012
-0.0302463
0.0846254
-0.0299169
0.0829022
-0.0292257
0.0811927
-0.0282327
0.0795495
-0.0269998
0.0780113
-0.0255909
0.0766025
-0.0240664
0.0753355
-0.0224788
0.0742127
-0.0208712
0.0732289
-0.0192785
0.0723746
-0.0177272
0.0716377
-0.0162372
0.0710052
-0.0148223
0.0704645
-0.0134913
0.0700036
-0.012249
0.0696114
-0.0110975
0.0692781
-0.0100361
0.068995
-0.00906272
0.0687542
-0.00817415
0.068549
-0.00736614
0.0683736
-0.00663379
0.0682228
-0.00597187
0.0680923
-0.00537503
0.0679785
-0.00483785
0.0678785
-0.0043551
0.0677897
-0.00392159
0.0677101
-0.00353272
0.0676381
-0.00318368
0.0675723
-0.00287084
0.0675117
-0.00258959
0.0674554
-0.0023376
0.0674027
-0.00211
0.0673531
-0.00190628
0.0673061
-0.00172058
0.0672615
-0.00155491
0.0672188
-0.00140147
0.0671781
-0.00126563
0.0671389
-0.00113676
0.0671014
-0.00102412
0.0670653
-0.000914186
0.0670306
-0.000819308
0.0669974
-0.000725298
0.0669653
-0.000643392
0.0669352
-0.000565192
0.0669059
-0.000490909
0.0668795
-0.000430382
0.0668534
-0.000355996
0.0668311
-0.000314638
0.0668084
-0.000229267
0.06679
-0.000205793
0.06677
-9.81439e-05
0.0667532
-8.83929e-05
4.77834e-05
0.100768
0.0167339
-0.101583
0.100534
0.0157404
0.100392
0.0148258
0.100217
0.0137892
0.100002
0.0125285
0.0997616
0.0110629
0.0995257
0.00944021
0.0993176
0.0076917
0.0991543
0.00584314
0.0990471
0.00390147
0.0989901
0.00190659
0.0989947
-0.000139628
0.0990848
-0.00237916
0.0992125
-0.00459168
0.0993619
-0.00685636
0.0995052
-0.00916781
0.0996028
-0.0115129
0.0996094
-0.0138709
0.099477
-0.0162121
0.0991586
-0.0184963
0.0986129
-0.0206724
0.0978107
-0.0226805
0.0967385
-0.0244577
0.0954018
-0.0259442
0.0938249
-0.0270902
0.0920502
-0.0278617
0.0901332
-0.0282455
0.088137
-0.0282501
0.0861238
-0.0279037
0.0841476
-0.0272495
0.0822535
-0.0263385
0.0804758
-0.0252222
0.0788367
-0.0239518
0.0773468
-0.0225765
0.0760082
-0.0211402
0.0748173
-0.0196803
0.0737661
-0.0182273
0.0728443
-0.0168054
0.0720404
-0.0154333
0.0713424
-0.0141242
0.0707383
-0.0128872
0.0702171
-0.0117278
0.0697682
-0.0106485
0.069382
-0.00964989
0.06905
-0.00873066
0.0687642
-0.00788843
0.0685179
-0.00711986
0.0683051
-0.00642092
0.0681204
-0.0057872
0.0679594
-0.00521407
0.0678184
-0.00469677
0.067694
-0.0042307
0.0675835
-0.00381116
0.0674849
-0.00343404
0.067396
-0.00309487
0.0673156
-0.00279039
0.0672422
-0.0025162
0.0671749
-0.00227028
0.0671127
-0.00204785
0.0670551
-0.00184868
0.0670014
-0.00166688
0.0669513
-0.00150475
0.0669042
-0.00135438
0.06686
-0.0012214
0.0668183
-0.00109506
0.0667789
-0.000984801
0.0667419
-0.000877127
0.0667068
-0.00078423
0.066674
-0.000692485
0.0666428
-0.000612217
0.0666143
-0.000536625
0.066587
-0.000463643
0.066563
-0.00040637
0.0665398
-0.000332866
0.0665206
-0.000295413
0.0665017
-0.000210344
0.0664868
-0.000190917
0.0664714
-8.27067e-05
0.0664589
-7.58704e-05
6.19073e-05
0.103402
0.0164182
-0.103086
0.103902
0.0152405
0.104419
0.0143089
0.104897
0.013311
0.105299
0.012126
0.105616
0.0107462
0.105853
0.00920273
0.106021
0.00752404
0.106129
0.00573477
0.106183
0.00384813
0.106201
0.00188873
0.106196
-0.0001348
0.106119
-0.00230214
0.105997
-0.0044702
0.10581
-0.0066695
0.105536
-0.00889369
0.105149
-0.0111251
0.104618
-0.0133399
0.103914
-0.0155081
0.10301
-0.0175927
0.101887
-0.0195496
0.100537
-0.0213303
0.0989649
-0.0228856
0.0971911
-0.0241705
0.09525
-0.025149
0.0931871
-0.0257988
0.0910547
-0.0261131
0.088906
-0.0261014
0.0867899
-0.0257876
0.0847471
-0.0252067
0.082809
-0.0244003
0.0809983
-0.0234115
0.0793295
-0.0222829
0.0778087
-0.0210557
0.0764361
-0.0197677
0.0752076
-0.0184518
0.0741157
-0.0171354
0.0731509
-0.0158406
0.0723024
-0.0145848
0.0715591
-0.0133809
0.07091
-0.0122381
0.0703445
-0.0111622
0.0698525
-0.0101566
0.0694249
-0.00922233
0.0690534
-0.00835919
0.0687306
-0.00756553
0.0684495
-0.00683882
0.0682044
-0.00617585
0.0679902
-0.00557291
0.0678022
-0.00502608
0.0676366
-0.00453119
0.0674901
-0.00408423
0.0673599
-0.00368095
0.0672436
-0.00331774
0.0671392
-0.00299043
0.0670449
-0.00269617
0.0669595
-0.00243074
0.0668817
-0.00219245
0.0668104
-0.00197662
0.066745
-0.00178327
0.0666847
-0.00160657
0.066629
-0.00144901
0.0665773
-0.00130271
0.0665293
-0.00117343
0.0664847
-0.00105048
0.0664432
-0.000943259
0.0664046
-0.000838579
0.0663686
-0.000748238
0.0663355
-0.000659368
0.0663046
-0.000581275
0.0662767
-0.000508733
0.0662507
-0.000437606
0.0662281
-0.000383768
0.066207
-0.000311768
0.0661896
-0.000278099
0.0661734
-0.000194079
0.0661608
-0.000178318
0.0661486
-7.05052e-05
0.0661389
-6.621e-05
7.19221e-05
0.103706
0.0154755
-0.102763
0.104512
0.0144343
0.105331
0.0134894
0.106148
0.0124945
0.106901
0.0113724
0.107558
0.0100895
0.108107
0.00865411
0.108545
0.00708598
0.108874
0.00540525
0.109094
0.00362819
0.109215
0.00176762
0.109239
-0.000158758
0.10912
-0.00218316
0.108885
-0.00423518
0.108525
-0.00630863
0.108023
-0.00839182
0.107364
-0.0104667
0.106534
-0.0125096
0.105518
-0.014492
0.104305
-0.0163805
0.102894
-0.0181377
0.101287
-0.019724
0.0995024
-0.0211007
0.0975649
-0.022233
0.09551
-0.0230941
0.0933791
-0.0236679
0.0912164
-0.0239503
0.0890647
-0.0239497
0.0869625
-0.0236855
0.0849418
-0.023186
0.083027
-0.0224855
0.0812358
-0.0216203
0.0795793
-0.0206265
0.0780629