/*--------------------------------*- C++ -*----------------------------------*\
| =========                 |                                                 |
| \\      /  F ield         | OpenFOAM: The Open Source CFD Toolbox           |
|  \\    /   O peration     | Version:  4.1                                   |
|   \\  /    A nd           | Web:      www.OpenFOAM.org                      |
|    \\/     M anipulation  |                                                 |
\*---------------------------------------------------------------------------*/
FoamFile
{
    version     2.0;
    format      ascii;
    class       volScalarField;
    location    "14.2";
    object      p;
}
// * * * * * * * * * * * * * * * * * * * * * * * * * * * * * * * * * * * * * //

dimensions      [0 2 -2 0 0 0 0];

internalField   nonuniform List<scalar> 
2000
(
-0.112472
-0.102376
-0.093306
-0.0847923
-0.0769311
-0.0695322
-0.0621072
-0.0553544
-0.0474321
-0.0443901
-0.130935
-0.11721
-0.105772
-0.0951572
-0.0850868
-0.0753734
-0.0658445
-0.0567359
-0.0474009
-0.0408852
-0.153102
-0.1352
-0.12114
-0.107917
-0.0947492
-0.0817279
-0.069034
-0.0569293
-0.0452322
-0.0349102
-0.178851
-0.156273
-0.139192
-0.122371
-0.10478
-0.0872653
-0.0705352
-0.0549605
-0.0403132
-0.027729
-0.207186
-0.179689
-0.158833
-0.136844
-0.113303
-0.0902667
-0.0689376
-0.0495983
-0.0321864
-0.0170639
-0.2362
-0.203878
-0.177829
-0.148762
-0.117989
-0.0888542
-0.0627365
-0.0397179
-0.0195091
-0.0018954
-0.262869
-0.226283
-0.192993
-0.15511
-0.116464
-0.0812205
-0.0505222
-0.0240483
-0.00118884
0.0189095
-0.283417
-0.243303
-0.200805
-0.153057
-0.10664
-0.0657748
-0.0309805
-0.00144447
0.0239112
0.0463451
-0.293973
-0.250759
-0.197977
-0.140317
-0.0868652
-0.0411987
-0.0029987
0.0290946
0.0566227
0.0809334
-0.291139
-0.244863
-0.181734
-0.115229
-0.0559796
-0.00654506
0.0342468
0.0682918
0.097521
0.123028
-0.0370313
-0.0404963
-0.0416539
-0.0421163
-0.0422028
-0.0418877
-0.0411728
-0.0400935
-0.0387388
-0.0373094
-0.0387368
-0.0419842
-0.0430065
-0.0433816
-0.0433879
-0.0429813
-0.0421501
-0.040903
-0.0392972
-0.0376916
-0.0420322
-0.0448193
-0.0455885
-0.0457727
-0.0456
-0.0449968
-0.0439228
-0.0423523
-0.0402391
-0.0380519
-0.0466697
-0.0487915
-0.0491639
-0.0490299
-0.0485647
-0.0476525
-0.0462081
-0.0441952
-0.041358
-0.0373098
-0.0523925
-0.0536685
-0.0534691
-0.0528583
-0.0519703
-0.0506458
-0.0487207
-0.0460759
-0.042216
-0.0368495
-0.0590157
-0.0592671
-0.058273
-0.0569837
-0.0555142
-0.0536704
-0.0511982
-0.0478831
-0.0430905
-0.0348921
-0.066516
-0.065521
-0.0634529
-0.0612349
-0.058958
-0.0564391
-0.0533125
-0.0492719
-0.0442619
-0.0322982
-0.0751135
-0.0724826
-0.0691298
-0.0656646
-0.0623073
-0.0589036
-0.0549826
-0.0500604
-0.045373
-0.0308186
-0.0851984
-0.0805925
-0.0756019
-0.0706221
-0.0659748
-0.0614869
-0.0566332
-0.0509582
-0.0458742
-0.0319288
-0.097419
-0.0903559
-0.0834369
-0.0767774
-0.0706465
-0.0648836
-0.0589125
-0.0529349
-0.0464977
-0.0375192
-0.0359717
-0.0343266
-0.0325268
-0.0306307
-0.0286495
-0.0265995
-0.0244993
-0.0223668
-0.0202194
-0.0180745
-0.0159517
-0.0138813
-0.011866
-0.00992971
-0.00809444
-0.00637823
-0.00480756
-0.00343423
-0.00225155
-0.000901322
-0.0366974
-0.03496
-0.0330413
-0.0310664
-0.0290183
-0.0269055
-0.0247457
-0.0225559
-0.0203526
-0.018152
-0.0159708
-0.0138425
-0.0117665
-0.00977254
-0.00788722
-0.00613361
-0.00454152
-0.00316655
-0.00202519
-0.000811141
-0.0379951
-0.0360244
-0.0338937
-0.0317813
-0.0296107
-0.0273831
-0.0251175
-0.0228305
-0.0205335
-0.0182237
-0.0159668
-0.0137067
-0.0115211
-0.00942961
-0.00746003
-0.00564396
-0.00402035
-0.00265054
-0.00158118
-0.000609356
-0.040311
-0.0371506
-0.0347765
-0.032545
-0.0302453
-0.0278785
-0.0254568
-0.0230084
-0.0206021
-0.0181899
-0.0157618
-0.0133815
-0.0110748
-0.00887126
-0.00680476
-0.00491887
-0.00326563
-0.00191467
-0.000952754
-0.000306799
-0.0409875
-0.0388553
-0.0357676
-0.0330954
-0.0305946
-0.0281723
-0.0256782
-0.0231357
-0.0205131
-0.0179064
-0.0153299
-0.0128187
-0.0103918
-0.00808013
-0.00592623
-0.00398635
-0.00233001
-0.00104866
-0.000220241
6.24016e-05
-0.0419446
-0.0406596
-0.0368428
-0.0337807
-0.0312437
-0.0285481
-0.0257537
-0.0229408
-0.0201503
-0.0174059
-0.0147023
-0.0120599
-0.00951221
-0.00710184
-0.00487975
-0.00291343
-0.00128281
-9.76359e-05
0.000534933
0.000434534
-0.0422586
-0.0426024
-0.0378704
-0.0338791
-0.0310637
-0.0283871
-0.0255153
-0.0225682
-0.0196454
-0.0167601
-0.0139178
-0.0111491
-0.00849665
-0.00601292
-0.00375459
-0.00180347
-0.000241539
0.00078929
0.00118646
0.000722308
-0.042457
-0.0441521
-0.0388302
-0.0341313
-0.0311096
-0.0283193
-0.0252501
-0.0220993
-0.0190117
-0.0159889
-0.0130261
-0.0101602
-0.00743896
-0.00492529
-0.00267488
-0.000789392
0.000662381
0.0014972
0.00165462
0.000858492
-0.0426866
-0.0440263
-0.0382352
-0.0334885
-0.0304581
-0.0275017
-0.0242907
-0.0210947
-0.017998
-0.0149629
-0.0119867
-0.00912286
-0.00642106
-0.0039578
-0.00178024
-1.54191e-05
0.00129707
0.00193099
0.00189767
0.000857802
-0.0460107
-0.0436744
-0.0377155
-0.0335205
-0.030119
-0.0265913
-0.0231064
-0.0198438
-0.0167408
-0.0137323
-0.0108176
-0.00805128
-0.00546738
-0.00314925
-0.0011263
0.000456883
0.00159789
0.00205282
0.00190409
0.000788171
-0.0350488
-0.0324352
-0.0310604
-0.0291304
-0.0264035
-0.023363
-0.0203714
-0.0174993
-0.0146985
-0.0119612
-0.00930725
-0.00680068
-0.00447087
-0.00240941
-0.000631833
0.00071339
0.0016511
0.00194403
0.00172079
0.000651338
-0.0312997
-0.0290319
-0.0271087
-0.0248601
-0.0222604
-0.0195981
-0.0170261
-0.0145405
-0.0121025
-0.00972453
-0.00743012
-0.00528049
-0.00329949
-0.0015734
-0.000110925
0.00095339
0.00165334
0.00178472
0.00149545
0.000506049
-0.0232297
-0.0230862
-0.0214084
-0.0191616
-0.0169651
-0.0149387
-0.0129948
-0.0110584
-0.00911045
-0.00719042
-0.00533419
-0.00360257
-0.00201909
-0.000660796
0.000462748
0.00123974
0.00169929
0.00168794
0.00133455
0.00044655
-0.0134603
-0.0156288
-0.0148674
-0.0130475
-0.011368
-0.00999568
-0.00871584
-0.00737847
-0.00596294
-0.00452919
-0.00313013
-0.00182823
-0.000649281
0.000341235
0.00113014
0.00163027
0.00185894
0.00171108
0.00127763
0.00044498
-0.00317206
-0.00704207
-0.00753592
-0.0065435
-0.00552348
-0.00480937
-0.00419524
-0.00348458
-0.00263525
-0.00171277
-0.000785677
7.854e-05
0.000849777
0.00147232
0.00193011
0.00215508
0.00215399
0.00185382
0.00131395
0.00046778
0.00764521
0.00237526
0.000426266
0.000317807
0.000552137
0.000588094
0.000535808
0.000602151
0.000857572
0.00124492
0.00168586
0.00210504
0.00246665
0.00271996
0.0028485
0.00279438
0.00256032
0.00208573
0.00141684
0.000497848
0.0187179
0.0120915
0.00870917
0.00744301
0.00680983
0.00612908
0.00540388
0.00482053
0.00446913
0.00430674
0.00425204
0.00422146
0.00417327
0.00405674
0.00385727
0.00351922
0.00304794
0.00238013
0.00156521
0.000531383
0.0295987
0.0217449
0.0170968
0.0147186
0.0131817
0.0117501
0.0103433
0.00911233
0.00815356
0.0074365
0.00688148
0.0063989
0.00594185
0.00545637
0.00493007
0.00430512
0.00359235
0.00271887
0.0017443
0.000570616
0.0400265
0.0311938
0.0254682
0.0220228
0.0195712
0.0173674
0.0152755
0.0134081
0.0118535
0.0105878
0.00953506
0.00860344
0.00774159
0.00689184
0.00604172
0.0051311
0.00417384
0.00308959
0.00194422
0.000620641
0.0498684
0.0403174
0.0336556
0.0292163
0.0258537
0.0228707
0.0201055
0.0176268
0.0155009
0.0137049
0.0121665
0.0107967
0.00953969
0.0083361
0.0071689
0.00597937
0.00477727
0.00348427
0.00215946
0.00068714
0.0589994
0.0489935
0.0415332
0.0361492
0.0318871
0.028147
0.0247403
0.0216876
0.0190253
0.0167281
0.0147269
0.012939
0.0113036
0.009763
0.00829045
0.00683417
0.00539081
0.00389641
0.00238677
0.000772619
0.0672835
0.057074
0.0489422
0.042664
0.0375497
0.0330938
0.0290918
0.0255152
0.0223632
0.019604
0.0171719
0.0149938
0.0130037
0.0111481
0.00938716
0.00768007
0.00600383
0.00431776
0.00262239
0.000872877
0.0746415
0.0644271
0.0557507
0.0486568
0.0427487
0.0376368
0.033101
0.0290575
0.0254667
0.02229
0.0194658
0.0169306
0.0146149
0.0124691
0.0104414
0.00850082
0.00660516
0.00473628
0.00286017
0.00097579
0.0810955
0.0709736
0.0618661
0.0540618
0.0474439
0.0417475
0.0367398
0.032284
0.0283057
0.0247581
0.0215841
0.0187265
0.0161169
0.0137064
0.0114367
0.0092791
0.00718219
0.00513663
0.00309122
0.0010644
0.0867371
0.0766878
0.067243
0.0588522
0.0516321
0.0454248
0.0399999
0.0351804
0.0308641
0.0269908
0.0235089
0.0203632
0.0174926
0.0148416
0.0123565
0.00999746
0.00772103
0.00550332
0.00330546
0.00112424
0.0916248
0.0815508
0.0718365
0.0630043
0.0553039
0.0486629
0.0428727
0.0377336
0.0331245
0.0289684
0.0252206
0.021821
0.0187226
0.0158559
0.013183
0.0106394
0.00820733
0.0058245
0.00349434
0.00115113
0.0957151
0.085515
0.075596
0.0664601
0.0584063
0.0514171
0.0453189
0.0399059
0.03505
0.0306557
0.026686
0.0230701
0.0197797
0.0167257
0.0138948
0.0111882
0.00862609
0.00609269
0.00365214
0.00115287
0.098915
0.0885398
0.0784667
0.0691358
0.0608426
0.0535968
0.0472586
0.0416273
0.0365771
0.0319958
0.0278535
0.0240659
0.0206243
0.0174193
0.014464
0.0116243
0.00896016
0.00630139
0.00377411
0.0011419
0.101205
0.0906524
0.0804492
0.0709854
0.0625363
0.0551175
0.0486125
0.0428272
0.0376417
0.0329307
0.0286697
0.0247625
0.0212159
0.0179045
0.0148624
0.0119285
0.00919321
0.00644504
0.00385644
0.00112881
0.102556
0.0918755
0.0815559
0.0719938
0.063449
0.0559312
0.0493321
0.0434617
0.0382023
0.0334226
0.0290983
0.0251287
0.0215259
0.0181594
0.0150703
0.0120888
0.00931397
0.00652205
0.00389774
0.00112476
0.143253
0.101388
0.0662326
0.0375671
0.0151477
-0.00183636
-0.0141492
-0.0234197
-0.0291357
-0.0408477
0.160057
0.119564
0.085199
0.0564589
0.033354
0.0145662
0.000637035
-0.0124818
-0.0196931
-0.0340485
0.175709
0.136858
0.103664
0.0751225
0.0517172
0.0311445
0.0157071
-0.000433234
-0.00847596
-0.0224589
0.19011
0.152747
0.120575
0.092116
0.0685294
0.0467435
0.0305937
0.01352
0.00485028
-0.00936674
0.203262
0.167139
0.135797
0.107427
0.0838509
0.061616
0.0452596
0.027953
0.0179039
0.00287038
0.215247
0.180198
0.149614
0.121491
0.0981197
0.0758516
0.0591815
0.0414582
0.030041
0.0146548
0.226132
0.19206
0.162213
0.134476
0.111356
0.0891344
0.0720481
0.0540397
0.0419395
0.0266497
0.235949
0.202774
0.173623
0.146326
0.123428
0.101317
0.0840017
0.0660848
0.0537025
0.0385966
0.244701
0.212342
0.183818
0.15698
0.134308
0.112446
0.0951161
0.0774878
0.0648215
0.0499759
0.25241
0.22079
0.192812
0.166452
0.144027
0.122526
0.105229
0.0879126
0.0749187
0.0604843
0.259107
0.228184
0.200675
0.174803
0.152618
0.131508
0.114204
0.0971945
0.0839292
0.0699589
0.264849
0.234578
0.207496
0.182111
0.160143
0.139404
0.12208
0.105353
0.0919154
0.0782853
0.269723
0.240048
0.213383
0.188467
0.166714
0.146299
0.129
0.112475
0.0989646
0.0854623
0.273841
0.244717
0.218469
0.193979
0.172462
0.15231
0.1351
0.118679
0.105181
0.0916557
0.277325
0.248706
0.222861
0.198746
0.177482
0.157543
0.140461
0.124104
0.110654
0.0971159
0.280254
0.252094
0.226614
0.202838
0.181808
0.162076
0.145104
0.12886
0.115419
0.102003
0.282647
0.254904
0.229731
0.206277
0.185429
0.165936
0.149014
0.132971
0.119453
0.106274
0.284451
0.257095
0.232169
0.209034
0.188312
0.16909
0.152163
0.13637
0.122705
0.109761
0.285542
0.25854
0.233824
0.210998
0.190386
0.171436
0.1545
0.138944
0.125131
0.11234
0.285857
0.259089
0.23452
0.211929
0.191423
0.172688
0.155781
0.140404
0.126527
0.113829
0.768223
0.769341
0.762486
0.749309
0.731148
0.707634
0.676274
0.633654
0.581308
0.552022
0.714874
0.711812
0.696598
0.676573
0.652957
0.623596
0.585053
0.533706
0.471157
0.43425
0.655042
0.646257
0.624646
0.599327
0.570694
0.535486
0.489858
0.43017
0.357998
0.313951
0.585359
0.572278
0.547037
0.518192
0.485387
0.444908
0.392889
0.325872
0.245139
0.195167
0.511098
0.494582
0.466878
0.435359
0.39903
0.354014
0.296632
0.223891
0.136075
0.0822333
0.436584
0.41683
0.38719
0.353533
0.31428
0.265503
0.203724
0.127063
0.034318
-0.0197518
0.364078
0.341379
0.310388
0.275215
0.233753
0.182173
0.117041
0.0368011
-0.0530062
-0.10819
0.295104
0.270098
0.238492
0.202576
0.159779
0.106652
0.0399568
-0.0405091
-0.126037
-0.180758
0.23112
0.204737
0.173356
0.137509
0.0943556
0.0410078
-0.0250101
-0.103144
-0.183148
-0.235684
0.173034
0.146921
0.116458
0.0811377
0.0386642
-0.0133734
-0.0768596
-0.150323
-0.222801
-0.272282
1.05873
1.06699
1.07663
1.08769
1.10019
1.11399
1.12865
1.14282
1.15567
1.17345
1.0557
1.06334
1.07251
1.08306
1.0949
1.10789
1.12156
1.13453
1.14599
1.16299
1.04933
1.05571
1.06396
1.07349
1.08403
1.09542
1.1071
1.11766
1.12649
1.14174
1.03902
1.04351
1.05042
1.05845
1.06709
1.07609
1.08485
1.09184
1.09678
1.10932
1.02402
1.02597
1.03112
1.03723
1.04339
1.04931
1.05425
1.05658
1.05636
1.06527
1.00341
1.00216
1.00519
1.009
1.01219
1.01437
1.01468
1.01134
1.00476
1.0091
0.976295
0.971251
0.97195
0.973206
0.97295
0.970759
0.965686
0.955744
0.941673
0.940533
0.941036
0.931795
0.930363
0.929062
0.925058
0.918028
0.90697
0.889636
0.867058
0.859636
0.897194
0.884089
0.881165
0.876982
0.868606
0.85621
0.838652
0.813281
0.781329
0.766983
0.83909
0.827314
0.824565
0.817083
0.803876
0.785832
0.761412
0.72751
0.685508
0.663809
1.00018
1.00083
1.00206
1.00347
1.00487
1.0063
1.00781
1.00945
1.01124
1.01322
1.0154
1.01781
1.0205
1.02352
1.02691
1.03074
1.03506
1.03994
1.04546
1.0517
1.00017
1.00083
1.00203
1.00339
1.00475
1.00612
1.00759
1.00918
1.01091
1.01282
1.01492
1.01725
1.01984
1.02274
1.02599
1.02965
1.03376
1.03839
1.04359
1.04945
1.00019
1.00082
1.00193
1.0032
1.00447
1.00575
1.00712
1.0086
1.01022
1.01198
1.01392
1.01606
1.01843
1.02108
1.02403
1.02732
1.03099
1.03509
1.03962
1.04468
1.0002
1.00077
1.00175
1.00287
1.004
1.00514
1.00635
1.00766
1.00908
1.0106
1.01227
1.01411
1.01613
1.01835
1.0208
1.0235
1.02645
1.02967
1.03309
1.03682
1.00019
1.00068
1.00146
1.00237
1.0033
1.00423
1.0052
1.00624
1.00737
1.00857
1.00984
1.01123
1.01272
1.01433
1.01604
1.01784
1.01971
1.02163
1.0234
1.02514
1.00016
1.00052
1.00104
1.00167
1.00232
1.00297
1.00363
1.00433
1.00501
1.00573
1.00647
1.00724
1.008
1.00873
1.0094
1.00996
1.01032
1.01041
1.00989
1.00879
1.00008
1.00025
1.00046
1.00073
1.00101
1.00128
1.00153
1.00172
1.00187
1.00198
1.00202
1.00196
1.00174
1.0013
1.00058
0.999435
0.997746
0.995353
0.991844
0.987075
0.999947
0.999843
0.999682
0.99952
0.999351
0.99913
0.998825
0.998423
0.99791
0.997249
0.996398
0.99528
0.993831
0.991918
0.989445
0.986157
0.981898
0.97619
0.968633
0.958433
0.999715
0.999196
0.998634
0.998026
0.997334
0.99652
0.995565
0.994442
0.993115
0.991511
0.989566
0.987149
0.984183
0.980419
0.975788
0.969777
0.962419
0.952551
0.940353
0.922976
0.999517
0.998439
0.997421
0.996343
0.995037
0.993481
0.991719
0.989719
0.987409
0.98465
0.981357
0.977306
0.972416
0.966211
0.958699
0.948759
0.936905
0.920329
0.901562
0.873541
0.999299
0.997766
0.996406
0.994855
0.992851
0.990455
0.987804
0.984861
0.981503
0.977509
0.972776
0.96699
0.960083
0.951378
0.940947
0.927223
0.910872
0.887551
0.859469
0.812477
0.999081
0.997344
0.995676
0.993501
0.990635
0.987344
0.983861
0.980071
0.975776
0.970682
0.96472
0.957502
0.949033
0.93846
0.926034
0.909878
0.89106
0.865298
0.836289
0.795886
0.999802
0.998199
0.995978
0.99258
0.988361
0.984016
0.979748
0.975179
0.969981
0.963816
0.956695
0.948173
0.938339
0.926205
0.912221
0.894379
0.874226
0.847697
0.819278
0.780913
0.99938
1.00011
0.998106
0.992486
0.986036
0.980392
0.975417
0.970142
0.964039
0.956783
0.948521
0.938761
0.927677
0.914158
0.898878
0.87972
0.858678
0.83154
0.803404
0.765701
0.999927
1.00315
1.00057
0.991791
0.982792
0.976043
0.970642
0.964795
0.95782
0.949499
0.94016
0.929259
0.917056
0.902332
0.885981
0.865784
0.844083
0.816509
0.788613
0.75181
1.00019
1.00535
1.00167
0.989435
0.978373
0.971188
0.965616
0.959158
0.951264
0.941927
0.93161
0.919688
0.906483
0.89072
0.873468
0.852479
0.830283
0.80257
0.774966
0.739337
0.994156
0.992889
0.988504
0.979155
0.971326
0.966051
0.960601
0.953225
0.944277
0.934027
0.922889
0.910091
0.895985
0.879335
0.861304
0.839754
0.817182
0.789616
0.762275
0.727967
0.999038
0.976566
0.956418
0.954184
0.959066
0.960257
0.955533
0.946912
0.936822
0.925835
0.914069
0.900564
0.885657
0.868275
0.84957
0.827672
0.804801
0.777595
0.750432
0.717503
0.992559
0.954392
0.930192
0.936892
0.95124
0.95657
0.951705
0.941543
0.930168
0.918355
0.905882
0.891659
0.875951
0.857928
0.838602
0.816494
0.793354
0.766615
0.739542
0.707929
0.99172
0.949139
0.923534
0.932436
0.9489
0.954398
0.948372
0.936899
0.924476
0.911833
0.898538
0.883552
0.867067
0.8485
0.828636
0.806416
0.783048
0.756789
0.729767
0.699295
0.996412
0.966629
0.947172
0.950258
0.956815
0.955263
0.946052
0.933458
0.920294
0.906761
0.89244
0.876568
0.859311
0.840263
0.819952
0.797648
0.774107
0.748238
0.721289
0.691693
0.98838
0.99075
0.997777
0.991288
0.976867
0.961061
0.946249
0.932205
0.918266
0.903622
0.888025
0.871093
0.853042
0.833505
0.812818
0.790377
0.766721
0.741056
0.714243
0.68518
1.00105
1.02332
1.03516
1.01851
0.990011
0.964681
0.945939
0.930915
0.916497
0.901008
0.884373
0.866538
0.847873
0.827935
0.807016
0.784414
0.760751
0.735108
0.708544
0.679648
1.00824
1.03945
1.05184
1.03039
0.99566
0.965775
0.94513
0.929646
0.91495
0.89883
0.881401
0.862836
0.843709
0.823428
0.802369
0.779577
0.755979
0.730237
0.704002
0.675044
1.01084
1.04797
1.06137
1.03547
0.995989
0.963757
0.942858
0.927743
0.913148
0.896661
0.87869
0.859598
0.840135
0.819572
0.798401
0.775453
0.751926
0.726136
0.700215
0.671323
1.00742
1.05305
1.07567
1.04491
0.996399
0.959456
0.937924
0.923799
0.909875
0.893486
0.875453
0.856247
0.836641
0.815922
0.794634
0.771648
0.748157
0.722528
0.696813
0.668359
0.973086
0.98394
1.01651
1.01547
0.991907
0.964081
0.941041
0.922795
0.906445
0.889675
0.872008
0.853166
0.833589
0.812784
0.791315
0.768368
0.744846
0.719532
0.693894
0.666071
1.00257
0.935453
0.877834
0.89234
0.928971
0.946092
0.939066
0.920511
0.901326
0.884097
0.867532
0.849797
0.830654
0.80999
0.788438
0.765627
0.742104
0.717154
0.691573
0.664289
1.00841
0.937543
0.865333
0.872309
0.912633
0.935546
0.93294
0.917328
0.899316
0.882144
0.865368
0.84764
0.82857
0.80806
0.786506
0.763817
0.740281
0.715587
0.690055
0.663153
0.9687
0.985692
1.02613
1.01309
0.973437
0.942761
0.926194
0.914191
0.900354
0.883831
0.865815
0.847046
0.827603
0.807151
0.785635
0.762996
0.739406
0.714832
0.68932
0.662684
0.762301
0.704888
0.646222
0.581226
0.511304
0.441147
0.373155
0.308204
0.24744
0.191975
0.756401
0.696441
0.63464
0.572566
0.506709
0.440007
0.375767
0.31479
0.257974
0.206261
0.744663
0.686864
0.62393
0.564191
0.503013
0.440197
0.379337
0.32188
0.268577
0.219692
0.732265
0.678235
0.615586
0.556802
0.499356
0.440475
0.38283
0.328435
0.278186
0.231902
0.720307
0.669684
0.60834
0.550205
0.495683
0.440727
0.386384
0.334729
0.28711
0.243106
0.708962
0.661243
0.601944
0.544722
0.492453
0.441053
0.389992
0.340871
0.295489
0.253415
0.698162
0.652919
0.596133
0.54028
0.489856
0.44149
0.393542
0.346808
0.303344
0.262873
0.687845
0.644757
0.590835
0.536846
0.488074
0.442168
0.396973
0.352445
0.310644
0.271502
0.678098
0.636883
0.586043
0.534339
0.487133
0.443129
0.400194
0.357629
0.317293
0.279278
0.669128
0.629517
0.581777
0.532608
0.486919
0.444329
0.403114
0.362215
0.323167
0.28617
0.66126
0.623013
0.578111
0.531451
0.487194
0.445636
0.405654
0.36611
0.328166
0.292044
0.65478
0.617714
0.575123
0.530627
0.487641
0.44686
0.407754
0.369301
0.332339
0.297053
0.649682
0.61368
0.572764
0.52989
0.487948
0.447811
0.409384
0.371836
0.335788
0.301338
0.645785
0.610705
0.570877
0.529067
0.48793
0.44838
0.410557
0.373798
0.338582
0.3049
0.64271
0.608299
0.569164
0.528054
0.487555
0.448575
0.411338
0.375289
0.340821
0.307844
0.640009
0.60596
0.567389
0.526903
0.486987
0.448552
0.411862
0.376441
0.342622
0.310273
0.637518
0.603585
0.565594
0.525795
0.486447
0.448485
0.412239
0.377334
0.344047
0.312237
0.635341
0.601382
0.563907
0.524756
0.485899
0.4483
0.412377
0.377882
0.345027
0.313685
0.633917
0.599846
0.562645
0.523873
0.485276
0.447854
0.41211
0.377913
0.345404
0.314473
0.633362
0.59925
0.562139
0.523441
0.484825
0.447358
0.411607
0.377527
0.345191
0.314525
)
;

boundaryField
{
    bottom
    {
        type            symmetryPlane;
    }
    right
    {
        type            fixedValue;
        value           uniform 0;
    }
    top
    {
        type            symmetryPlane;
    }
    left
    {
        type            fixedValue;
        value           uniform 1;
    }
    cylinder
    {
        type            zeroGradient;
    }
    defaultFaces
    {
        type            empty;
    }
}


// ************************************************************************* //
