/*--------------------------------*- C++ -*----------------------------------*\
| =========                 |                                                 |
| \\      /  F ield         | OpenFOAM: The Open Source CFD Toolbox           |
|  \\    /   O peration     | Version:  4.1                                   |
|   \\  /    A nd           | Web:      www.OpenFOAM.org                      |
|    \\/     M anipulation  |                                                 |
\*---------------------------------------------------------------------------*/
FoamFile
{
    version     2.0;
    format      ascii;
    class       volVectorField;
    location    "9.8";
    object      U;
}
// * * * * * * * * * * * * * * * * * * * * * * * * * * * * * * * * * * * * * //

dimensions      [0 1 -1 0 0 0 0];

internalField   nonuniform List<vector> 
2000
(
(-0.0410103 0.0342264 8.14739e-21)
(-0.0302658 0.0464969 0)
(0.0602174 0.0396912 8.39206e-21)
(0.218375 0.0271078 2.70355e-21)
(0.429234 0.017337 -4.96203e-21)
(0.669227 0.0134784 -4.62726e-21)
(0.914527 0.0167858 1.28848e-21)
(1.13701 0.021219 0)
(1.35325 0.0339383 -6.78654e-22)
(1.48586 0.0390739 0)
(-0.0380598 0.0281506 -3.89372e-21)
(0.007962 0.0268712 2.56947e-21)
(0.159096 0.0150269 -1.22667e-20)
(0.390897 0.00559901 -1.27391e-20)
(0.667951 0.00506072 -9.42311e-22)
(0.949119 0.0127735 1.23464e-21)
(1.20232 0.0254084 -2.10951e-21)
(1.41172 0.0369799 -1.03409e-21)
(1.57664 0.0506018 6.7861e-22)
(1.67352 0.04879 4.15154e-22)
(-0.0283342 0.0200093 5.55997e-21)
(0.0707212 0.0055052 -5.20786e-21)
(0.30043 -0.00546558 6.31378e-21)
(0.609207 -0.00412566 -1.5652e-21)
(0.932174 0.00913319 3.46739e-21)
(1.2179 0.0279184 2.47942e-21)
(1.4426 0.0460042 1.68059e-21)
(1.60431 0.0588966 1.03405e-21)
(1.71239 0.0672541 1.03162e-22)
(1.78622 0.065549 5.61102e-22)
(-0.00913234 0.0100207 -6.70015e-22)
(0.163306 -0.014801 -6.70512e-21)
(0.482694 -0.015984 0)
(0.852048 0.00231964 4.55832e-21)
(1.18357 0.0287713 -5.94317e-21)
(1.43635 0.0532729 0)
(1.60861 0.0706612 0)
(1.71714 0.0792446 0)
(1.78705 0.0829309 -1.03167e-22)
(1.82751 0.0779182 -1.76394e-21)
(0.0224239 -0.000889456 2.00427e-20)
(0.288145 -0.028949 6.09777e-23)
(0.692976 -0.0109216 6.64905e-21)
(1.08821 0.0250517 3.12641e-21)
(1.39055 0.0588751 3.38856e-21)
(1.58944 0.0823701 2.0454e-21)
(1.70853 0.0945833 0)
(1.77865 0.0981494 7.20589e-23)
(1.82262 0.096995 3.2115e-21)
(1.85692 0.089532 -4.92837e-21)
(0.0686992 -0.0105878 -3.42412e-20)
(0.441792 -0.0302922 1.87438e-21)
(0.908395 0.0119906 -1.32229e-20)
(1.29102 0.0603127 1.10739e-20)
(1.54194 0.0942825 -9.23155e-21)
(1.68601 0.112234 3.44006e-21)
(1.76431 0.118208 0)
(1.80968 0.116871 -7.20651e-23)
(1.84305 0.11183 -6.21537e-22)
(1.87295 0.10384 -7.49427e-21)
(0.130496 -0.0160628 0)
(0.612899 -0.01376 0)
(1.10578 0.0508685 -7.5654e-21)
(1.4485 0.103753 7.04269e-21)
(1.64301 0.132438 -2.91447e-21)
(1.74152 0.142871 2.73628e-21)
(1.79171 0.142494 -2.47157e-22)
(1.82372 0.136708 2.33622e-22)
(1.85161 0.128569 3.7935e-21)
(1.88074 0.119576 -1.80713e-21)
(0.206419 -0.0139902 8.5953e-21)
(0.784806 0.0219675 0)
(1.27061 0.102096 -3.31943e-21)
(1.56081 0.152438 1.27168e-20)
(1.70381 0.172485 -6.38632e-21)
(1.76801 0.174596 0)
(1.80068 0.168131 0)
(1.82571 0.158189 0)
(1.85206 0.147239 5.6853e-21)
(1.88131 0.137335 -5.4043e-21)
(0.292181 -0.00165393 -4.47351e-21)
(0.941478 0.0745414 -2.958e-22)
(1.39748 0.162141 -4.86752e-21)
(1.63313 0.204493 1.41058e-21)
(1.73342 0.213941 1.3333e-21)
(1.77365 0.207587 8.14265e-22)
(1.79609 0.19529 0)
(1.81818 0.181353 8.27278e-22)
(1.84411 0.167855 5.10892e-21)
(1.87338 0.1562 -3.83867e-21)
(0.38119 0.0222999 0)
(1.07206 0.139787 -3.56459e-21)
(1.48618 0.227809 0)
(1.67151 0.258523 -9.68105e-22)
(1.7387 0.256377 -8.86211e-22)
(1.76314 0.241661 -1.0019e-22)
(1.78018 0.22369 0)
(1.80131 0.205777 -8.27366e-22)
(1.82755 0.189629 -1.07034e-21)
(1.85727 0.175618 -1.52447e-21)
(-0.00874522 0.00847903 0)
(-0.0354151 0.0159342 1.94948e-22)
(-0.0737405 0.0187356 0)
(-0.111421 0.0195262 1.24487e-22)
(-0.146172 0.0195025 8.79693e-25)
(-0.177977 0.0192697 2.54794e-23)
(-0.20717 0.0191376 -2.39954e-23)
(-0.23426 0.0192598 9.80402e-23)
(-0.259935 0.0197467 -1.80757e-23)
(-0.285145 0.0206965 1.47181e-22)
(-0.0102172 0.0243558 6.93838e-22)
(-0.0363854 0.0460936 -4.09714e-22)
(-0.0718571 0.0544421 1.91674e-22)
(-0.105824 0.0567958 -8.61204e-23)
(-0.136304 0.0566171 -4.73395e-23)
(-0.163249 0.0557002 1.27931e-24)
(-0.186929 0.0549903 0)
(-0.207732 0.0549938 -9.77106e-23)
(-0.226158 0.0560797 -1.36433e-22)
(-0.24357 0.0585681 0)
(-0.0129112 0.0372185 -4.63008e-22)
(-0.0383543 0.0714513 0)
(-0.0687404 0.0850664 -3.92623e-22)
(-0.0959943 0.0889033 2.13167e-22)
(-0.118705 0.088311 -1.45147e-23)
(-0.13686 0.0861598 0)
(-0.150677 0.0840323 0)
(-0.160392 0.0828875 0)
(-0.166068 0.0834761 1.45977e-21)
(-0.169395 0.086485 -1.38734e-21)
(-0.0163699 0.0458797 0)
(-0.0413044 0.089808 8.09606e-23)
(-0.0653948 0.107973 -3.32456e-23)
(-0.0839788 0.113077 -3.88794e-23)
(-0.0965277 0.11178 3.0837e-22)
(-0.103227 0.107778 -1.16833e-21)
(-0.104323 0.10318 -2.8975e-22)
(-0.100057 0.0993972 1.05652e-21)
(-0.0899482 0.0977371 1.49803e-21)
(-0.0743707 0.0999723 -2.15382e-21)
(-0.0201514 0.0501626 -6.13184e-23)
(-0.0451268 0.100176 -5.3126e-22)
(-0.0626565 0.12155 -8.43449e-23)
(-0.0715116 0.127413 1.20903e-22)
(-0.0722936 0.125135 4.44067e-22)
(-0.0655775 0.118912 -1.30725e-21)
(-0.0517026 0.111121 0)
(-0.0311177 0.103301 -6.02551e-22)
(-0.00322043 0.0972964 6.32312e-22)
(0.0353121 0.0972359 -3.48347e-21)
(-0.0240092 0.0507665 -2.35409e-22)
(-0.0495604 0.102792 9.14537e-22)
(-0.0606505 0.125302 3.6763e-22)
(-0.0589265 0.130926 6.81483e-22)
(-0.0461292 0.127282 4.29136e-22)
(-0.0232952 0.118802 4.87398e-22)
(0.00911088 0.107906 0)
(0.0504527 0.095955 6.02507e-22)
(0.100164 0.084547 1.63805e-21)
(0.1709 0.0802296 -7.6736e-22)
(-0.0279588 0.048915 3.54944e-23)
(-0.0540646 0.0988937 9.10545e-22)
(-0.0581639 0.119823 0)
(-0.0439775 0.123603 -9.20548e-22)
(-0.014 0.117896 1.09099e-21)
(0.030429 0.107226 0)
(0.0887631 0.0941081 0)
(0.160355 0.0800988 0)
(0.237779 0.06434 -9.64041e-22)
(0.358993 0.0562875 -2.78969e-21)
(-0.0320975 0.0458662 -1.38029e-21)
(-0.0574754 0.0901736 1.29295e-21)
(-0.0519481 0.106573 2.13681e-21)
(-0.0205436 0.106611 2.64626e-22)
(0.0340241 0.0979943 1.19195e-21)
(0.110063 0.0853071 9.66663e-22)
(0.206108 0.0712454 8.41018e-22)
(0.321382 0.058726 7.4481e-22)
(0.43333 0.0420128 9.63917e-22)
(0.621534 0.0358814 -3.704e-22)
(-0.0362652 0.0424275 -6.47139e-21)
(-0.0574411 0.0781239 -1.16847e-21)
(-0.0360194 0.0875166 -4.32759e-21)
(0.022051 0.0824006 -1.55702e-21)
(0.113763 0.0707535 2.15867e-22)
(0.235592 0.0572336 -8.19844e-22)
(0.382332 0.0445661 8.86653e-22)
(0.548664 0.0365661 -7.44708e-22)
(0.702198 0.0244621 7.82175e-22)
(0.942124 0.0274579 -1.61743e-21)
(-0.0397161 0.0387227 4.62283e-21)
(-0.0500904 0.0635492 0)
(-0.0018602 0.0646153 2.74876e-21)
(0.0974937 0.0544679 2.54419e-23)
(0.242304 0.0415628 4.03039e-22)
(0.422591 0.0303845 1.05702e-21)
(0.625585 0.0237112 -2.86137e-21)
(0.832475 0.0215491 0)
(1.03107 0.0208918 -7.82046e-22)
(1.25707 0.0330074 0)
(-0.310421 0.0218952 0)
(-0.337488 0.0217405 -2.95852e-22)
(-0.364059 0.021345 6.48805e-22)
(-0.39026 0.0208336 -3.04339e-22)
(-0.415963 0.0201609 0)
(-0.440942 0.0192859 5.22904e-22)
(-0.464932 0.0181732 -5.25495e-22)
(-0.487623 0.0167939 0)
(-0.50866 0.0151288 0)
(-0.527654 0.0131659 8.82218e-23)
(-0.544177 0.0109008 0)
(-0.557752 0.008343 0)
(-0.567855 0.00550816 0)
(-0.574053 0.00241667 0)
(-0.576218 -0.000852234 -1.47505e-22)
(-0.574288 -0.00407768 1.4827e-22)
(-0.567727 -0.00710159 0)
(-0.555526 -0.00984153 -2.83583e-23)
(-0.538917 -0.0123226 2.85075e-23)
(-0.526751 -0.0142426 0)
(-0.262216 0.0618715 0)
(-0.285752 0.0616129 7.49834e-23)
(-0.308564 0.0606312 0)
(-0.331099 0.0593396 1.66744e-21)
(-0.353389 0.0576167 -1.60511e-21)
(-0.375249 0.0553445 1.34239e-22)
(-0.396471 0.0524166 -1.20582e-21)
(-0.416808 0.04874 2.68361e-21)
(-0.435983 0.0442437 -2.5359e-21)
(-0.453694 0.0388825 1.5032e-21)
(-0.469594 0.0326387 1.50826e-21)
(-0.483287 0.0255164 -2.83278e-21)
(-0.494336 0.0175428 1.52376e-21)
(-0.502289 0.00878529 8.94251e-22)
(-0.506791 -0.000545665 -7.05133e-22)
(-0.507685 -0.00996498 1.60062e-22)
(-0.504506 -0.0189261 1.32912e-22)
(-0.496236 -0.0270706 1.34361e-22)
(-0.483485 -0.0342879 -1.35012e-22)
(-0.473428 -0.0397339 1.6536e-23)
(-0.177086 0.0913741 -6.72589e-23)
(-0.193865 0.0913439 -7.51157e-23)
(-0.20983 0.0902687 -9.46607e-23)
(-0.225563 0.0887453 0)
(-0.241407 0.0866232 -2.3319e-21)
(-0.257231 0.0837374 1.81892e-21)
(-0.272891 0.0799266 0)
(-0.288238 0.0750408 -3.36795e-22)
(-0.303098 0.0689523 -1.75829e-22)
(-0.317288 0.0615631 2.76863e-21)
(-0.330626 0.0528145 9.35692e-23)
(-0.342903 0.0426864 -3.68723e-21)
(-0.353846 0.0311856 -2.1596e-22)
(-0.363077 0.0183743 -1.91236e-22)
(-0.370149 0.00443608 -1.99521e-22)
(-0.374863 -0.0102164 4.61719e-22)
(-0.376667 -0.0246227 -4.1285e-22)
(-0.374647 -0.0380134 -4.96406e-22)
(-0.368489 -0.0497361 -1.12236e-22)
(-0.362432 -0.0582629 2.36539e-24)
(-0.0696203 0.105699 -2.37169e-21)
(-0.0779044 0.106614 -4.28403e-22)
(-0.0852162 0.10607 -3.72733e-22)
(-0.0922672 0.104835 3.36193e-21)
(-0.0997002 0.102937 3.856e-22)
(-0.107469 0.100183 1.42001e-22)
(-0.115469 0.0963618 -5.10524e-21)
(-0.123609 0.0912996 2.66125e-21)
(-0.131806 0.0848496 2.96967e-21)
(-0.139983 0.0768802 -3.58075e-21)
(-0.148062 0.067286 -1.19582e-22)
(-0.156001 0.05601 4.1684e-21)
(-0.163764 0.0430417 2.14166e-22)
(-0.171256 0.028404 2.15905e-21)
(-0.178302 0.0121897 -1.51388e-21)
(-0.184585 -0.00535048 -1.39695e-21)
(-0.189679 -0.0234646 1.21305e-21)
(-0.193075 -0.0411604 0)
(-0.193822 -0.0571018 2.40136e-22)
(-0.192559 -0.0686982 2.34633e-23)
(0.0525685 0.103931 3.57076e-21)
(0.0535878 0.106633 -2.74092e-21)
(0.0540562 0.107003 2.91074e-21)
(0.0555278 0.106373 0)
(0.0568419 0.10511 -2.59655e-22)
(0.0576162 0.102999 -5.0126e-21)
(0.0579156 0.0997369 -8.67323e-22)
(0.0578467 0.095131 -5.13324e-22)
(0.05745 0.0890571 6.09238e-21)
(0.0567224 0.0813961 4.16075e-22)
(0.0556487 0.0720336 0)
(0.0541922 0.0608817 -4.50273e-22)
(0.0522636 0.0479144 0)
(0.0497845 0.0331682 -4.47253e-22)
(0.0467294 0.0167775 0)
(0.0432332 -0.00100233 0)
(0.0391317 -0.0199326 3.33012e-22)
(0.0346874 -0.0393559 -4.53571e-22)
(0.0302529 -0.0579613 4.09397e-22)
(0.0276189 -0.0727852 -1.23963e-22)
(0.197547 0.0891658 0)
(0.206314 0.0940184 -1.66031e-22)
(0.211855 0.0952987 -6.56688e-21)
(0.219344 0.0952834 6.35254e-21)
(0.22763 0.0947874 -2.48885e-22)
(0.235569 0.0935159 0)
(0.243018 0.0910273 -5.51902e-21)
(0.25015 0.0871233 1.1222e-20)
(0.257011 0.0817222 -6.45177e-21)
(0.263529 0.0747272 -4.21172e-22)
(0.269607 0.0660354 -4.45841e-22)
(0.275134 0.0555722 -4.63235e-22)
(0.279952 0.043307 0)
(0.283955 0.0292923 3.20153e-21)
(0.286988 0.0137286 -7.56911e-21)
(0.288984 -0.00309467 3.45055e-21)
(0.289341 -0.0209254 -3.59611e-22)
(0.288473 -0.0394603 -2.84561e-22)
(0.285462 -0.0575437 1.27591e-22)
(0.283169 -0.0746142 -1.28039e-22)
(0.388702 0.0680892 2.37423e-21)
(0.400596 0.0747078 0)
(0.40691 0.0762226 -1.74536e-22)
(0.416139 0.0763992 4.1476e-22)
(0.427633 0.0764618 4.83891e-22)
(0.439448 0.0757948 2.72016e-22)
(0.451136 0.0738173 3.08387e-22)
(0.462917 0.0704127 -5.53601e-21)
(0.474832 0.0655642 6.64458e-21)
(0.48672 0.0591749 7.65061e-21)
(0.498392 0.051145 -6.37134e-21)
(0.509667 0.041423 9.05732e-22)
(0.520307 0.0299985 -3.69373e-21)
(0.53023 0.0169128 5.40505e-22)
(0.539177 0.00249753 4.47323e-21)
(0.546909 -0.0130579 4.00545e-22)
(0.552397 -0.029259 -5.63522e-22)
(0.556828 -0.0460944 6.12029e-22)
(0.557768 -0.0612884 1.10399e-21)
(0.559407 -0.078471 6.44792e-23)
(0.645297 0.0498449 0)
(0.65455 0.0566292 -5.1412e-21)
(0.657625 0.0567405 5.29385e-21)
(0.664565 0.0562304 -2.01018e-22)
(0.675113 0.0562337 -4.52643e-22)
(0.686826 0.0554266 -2.71777e-22)
(0.699094 0.053238 -5.96278e-22)
(0.712137 0.0497731 0)
(0.725908 0.0450509 -3.7384e-22)
(0.740132 0.0389116 -4.0256e-22)
(0.754534 0.0312567 -4.07905e-22)
(0.768844 0.0220558 -8.66266e-22)
(0.782724 0.0113637 0)
(0.796295 -0.000742962 0)
(0.808907 -0.0139314 -4.258e-22)
(0.820344 -0.028424 -3.65569e-21)
(0.829156 -0.0428558 2.53695e-21)
(0.837559 -0.0580819 -2.54966e-22)
(0.841492 -0.0701164 -5.76557e-22)
(0.84712 -0.0856725 1.66882e-22)
(0.95499 0.0428043 1.7117e-21)
(0.958723 0.0466481 0)
(0.958659 0.0437296 0)
(0.963174 0.0421205 -6.16198e-21)
(0.971307 0.0411891 -9.22669e-22)
(0.980769 0.0390075 1.55727e-20)
(0.991224 0.0355006 -8.01884e-21)
(1.00284 0.0310347 0)
(1.01541 0.0256107 0)
(1.02864 0.0190308 0)
(1.04226 0.0112063 2.15806e-22)
(1.05601 0.00211514 6.11683e-22)
(1.06969 -0.00804026 6.59564e-21)
(1.08317 -0.019424 -6.35507e-21)
(1.09533 -0.0316422 3.0015e-21)
(1.10666 -0.0450343 -2.61437e-21)
(1.11572 -0.0575382 0)
(1.12433 -0.0710748 1.3257e-22)
(1.1287 -0.0805102 1.61513e-22)
(1.13433 -0.0934761 0)
(1.27483 0.0415067 -5.16788e-23)
(1.28147 0.0372334 -4.40329e-21)
(1.28509 0.033038 4.35754e-21)
(1.29036 0.0319776 0)
(1.29605 0.0307731 6.4948e-21)
(1.30174 0.0282322 -1.38446e-20)
(1.30807 0.0246785 7.34107e-21)
(1.31528 0.0202297 0)
(1.32328 0.014735 5.09294e-21)
(1.33182 0.00798553 -1.05069e-20)
(1.34082 0.000143439 5.59467e-21)
(1.35002 -0.00895254 -1.90836e-22)
(1.35939 -0.0189967 0)
(1.36827 -0.0303425 -5.91109e-21)
(1.37651 -0.0420454 8.3334e-21)
(1.38379 -0.0546218 -2.64229e-21)
(1.38981 -0.0658561 -1.9402e-21)
(1.39426 -0.0781851 1.33358e-21)
(1.39701 -0.0860755 6.93067e-22)
(1.39787 -0.0968245 0)
(1.61607 0.0442399 0)
(1.60117 0.038212 0)
(1.59168 0.0341621 0)
(1.58489 0.0309 0)
(1.57997 0.0272911 0)
(1.5769 0.0231925 0)
(1.57582 0.01863 0)
(1.57632 0.0134538 0)
(1.5782 0.00762318 0)
(1.58101 0.000895824 0)
(1.58473 -0.00667491 0)
(1.58849 -0.0152131 0)
(1.59274 -0.0243469 0)
(1.59629 -0.0345249 0)
(1.60002 -0.0445698 0)
(1.60197 -0.0556357 0)
(1.60424 -0.0651918 0)
(1.60324 -0.0761874 0)
(1.60382 -0.0828553 0)
(1.59875 -0.0927607 0)
(1.75628 0.0500188 0)
(1.75476 0.0466349 0)
(1.75389 0.0429521 0)
(1.75288 0.0383902 0)
(1.75199 0.03319 0)
(1.75155 0.0275741 0)
(1.75189 0.0216209 0)
(1.75272 0.0151894 0)
(1.75418 0.00826915 0)
(1.75554 0.000668469 0)
(1.75734 -0.00744486 0)
(1.75864 -0.0163238 0)
(1.76037 -0.0254343 0)
(1.76068 -0.0353645 0)
(1.76157 -0.0448417 0)
(1.75976 -0.0552325 0)
(1.75943 -0.0638553 0)
(1.75445 -0.0738263 0)
(1.75331 -0.0795827 0)
(1.7442 -0.0882494 0)
(1.8468 0.0510387 0)
(1.84963 0.0464762 0)
(1.85161 0.0420535 0)
(1.85322 0.037007 0)
(1.85509 0.0314904 0)
(1.8572 0.0256406 0)
(1.85972 0.0195229 0)
(1.86211 0.0129886 0)
(1.86462 0.00604729 0)
(1.8666 -0.00151428 0)
(1.86876 -0.00929519 0)
(1.86972 -0.0177492 0)
(1.87096 -0.026233 0)
(1.87024 -0.0354463 0)
(1.8703 -0.044012 0)
(1.86707 -0.0534196 0)
(1.86592 -0.0609379 0)
(1.85943 -0.0697789 0)
(1.85788 -0.0745969 0)
(1.84742 -0.0822293 0)
(1.91058 0.0502615 0)
(1.91567 0.0444254 0)
(1.91898 0.0390805 0)
(1.92163 0.0336626 0)
(1.9246 0.0280646 0)
(1.9278 0.0222345 0)
(1.93133 0.0162266 0)
(1.93451 0.00986723 0)
(1.93771 0.0032746 0)
(1.94012 -0.00378173 0)
(1.94257 -0.0110487 0)
(1.9436 -0.0189009 0)
(1.94491 -0.0266111 0)
(1.94405 -0.0349582 0)
(1.94408 -0.0425251 0)
(1.94067 -0.0508872 0)
(1.93957 -0.0573415 0)
(1.93307 -0.0651403 0)
(1.93169 -0.0691594 0)
(1.92155 -0.076028 0)
(1.96188 0.0477165 0)
(1.96813 0.0412336 0)
(1.9724 0.035367 0)
(1.97569 0.029776 0)
(1.97913 0.0242232 0)
(1.9827 0.0185167 0)
(1.98653 0.0126927 0)
(1.98994 0.00659057 0)
(1.99331 0.000359699 0)
(1.99578 -0.00626171 0)
(1.99826 -0.0129559 0)
(1.99931 -0.020124 0)
(2.00066 -0.02703 0)
(1.99986 -0.0344873 0)
(2 -0.0411043 0)
(1.99684 -0.0484747 0)
(1.99596 -0.0540045 0)
(1.99003 -0.0608707 0)
(1.98891 -0.0642615 0)
(1.97978 -0.0704376 0)
(2.01087 0.0438225 0)
(2.01754 0.0372578 0)
(2.02232 0.0312576 0)
(2.02589 0.0256438 0)
(2.02939 0.0201973 0)
(2.03289 0.0146753 0)
(2.03662 0.00909502 0)
(2.03988 0.00329558 0)
(2.04309 -0.00254538 0)
(2.04537 -0.00869491 0)
(2.04767 -0.0147992 0)
(2.04859 -0.021281 0)
(2.04985 -0.0274317 0)
(2.04906 -0.0340606 0)
(2.04923 -0.0398417 0)
(2.04632 -0.0463267 0)
(2.04562 -0.0510843 0)
(2.04027 -0.0571255 0)
(2.03937 -0.0600126 0)
(2.03126 -0.0655263 0)
(2.06243 0.0393895 0)
(2.06902 0.0330763 0)
(2.07387 0.0271771 0)
(2.07741 0.0216438 0)
(2.08071 0.0163444 0)
(2.08387 0.0110446 0)
(2.08722 0.00574503 0)
(2.09009 0.000289763 0)
(2.09293 -0.00514612 0)
(2.09483 -0.0108093 0)
(2.0968 -0.0163527 0)
(2.09743 -0.0221999 0)
(2.09845 -0.0276794 0)
(2.09751 -0.0335717 0)
(2.09759 -0.0386367 0)
(2.09478 -0.0443473 0)
(2.09413 -0.0484603 0)
(2.08917 -0.053774 0)
(2.0884 -0.0562461 0)
(2.08101 -0.0611416 0)
(2.11745 0.034981 0)
(2.12363 0.0290384 0)
(2.12827 0.0233621 0)
(2.13159 0.0179963 0)
(2.13455 0.012893 0)
(2.13726 0.00784767 0)
(2.14011 0.00285599 0)
(2.14246 -0.00223731 0)
(2.1448 -0.00726797 0)
(2.14622 -0.0124654 0)
(2.14773 -0.0174975 0)
(2.14795 -0.0227716 0)
(2.14861 -0.0276592 0)
(2.1474 -0.0328998 0)
(2.14726 -0.0373489 0)
(2.14436 -0.0423816 0)
(2.14366 -0.0459512 0)
(2.13883 -0.0506234 0)
(2.1381 -0.0527508 0)
(2.13108 -0.0570781 0)
(2.17494 0.0307927 0)
(2.18054 0.0252547 0)
(2.18482 0.0198846 0)
(2.18783 0.0147699 0)
(2.19042 0.00991997 0)
(2.19263 0.0051634 0)
(2.19494 0.000499991 0)
(2.19673 -0.00422486 0)
(2.19852 -0.00885541 0)
(2.19939 -0.0136082 0)
(2.20041 -0.0181677 0)
(2.20012 -0.0229174 0)
(2.20038 -0.0272752 0)
(2.19877 -0.0319339 0)
(2.19835 -0.0358466 0)
(2.19521 -0.0402822 0)
(2.19436 -0.0433884 0)
(2.18944 -0.0474937 0)
(2.18868 -0.0493315 0)
(2.1817 -0.0531401 0)
(2.23338 0.0268737 0)
(2.23834 0.0217714 0)
(2.24219 0.016776 0)
(2.24485 0.0119844 0)
(2.24705 0.00744151 0)
(2.24877 0.00300609 0)
(2.25055 -0.00130993 0)
(2.25175 -0.00565767 0)
(2.25299 -0.00989111 0)
(2.25329 -0.0142127 0)
(2.25379 -0.0183254 0)
(2.25298 -0.0225873 0)
(2.25279 -0.0264635 0)
(2.25073 -0.0305964 0)
(2.24998 -0.0340354 0)
(2.24647 -0.0379399 0)
(2.24542 -0.0406447 0)
(2.24024 -0.044245 0)
(2.2394 -0.0458348 0)
(2.23223 -0.0491709 0)
(2.29123 0.0232751 0)
(2.29555 0.0186416 0)
(2.29894 0.0140684 0)
(2.30121 0.00965212 0)
(2.30301 0.00545823 0)
(2.30425 0.00137192 0)
(2.30551 -0.00257797 0)
(2.30614 -0.00653855 0)
(2.30685 -0.0103739 0)
(2.30657 -0.0142721 0)
(2.30657 -0.0179565 0)
(2.30521 -0.021759 0)
(2.30458 -0.0251909 0)
(2.30201 -0.0288426 0)
(2.30091 -0.0318557 0)
(2.29696 -0.0352815 0)
(2.29568 -0.0376317 0)
(2.29011 -0.0407779 0)
(2.28916 -0.0421509 0)
(2.28164 -0.0450577 0)
(2.3469 0.0200487 0)
(2.3506 0.0159037 0)
(2.35352 0.0117803 0)
(2.35539 0.00777376 0)
(2.35679 0.00396106 0)
(2.35757 0.000253135 0)
(2.35835 -0.00331481 0)
(2.35843 -0.00688053 0)
(2.35862 -0.0103161 0)
(2.35779 -0.0137963 0)
(2.3573 -0.017066 0)
(2.3554 -0.020431 0)
(2.35434 -0.0234467 0)
(2.35126 -0.0266518 0)
(2.34981 -0.0292754 0)
(2.34538 -0.0322642 0)
(2.34386 -0.0342955 0)
(2.33784 -0.0370303 0)
(2.33677 -0.0382101 0)
(2.3288 -0.0407283 0)
(2.39868 0.0172068 0)
(2.40179 0.0135577 0)
(2.40425 0.00990086 0)
(2.40573 0.00632859 0)
(2.40678 0.0029242 0)
(2.40713 -0.000380748 0)
(2.40747 -0.00355336 0)
(2.40705 -0.00671561 0)
(2.40677 -0.0097483 0)
(2.40542 -0.0128139 0)
(2.40449 -0.0156789 0)
(2.40209 -0.0186229 0)
(2.40063 -0.0212435 0)
(2.39706 -0.0240296 0)
(2.39528 -0.0262917 0)
(2.39039 -0.0288778 0)
(2.38864 -0.0306179 0)
(2.38217 -0.0329782 0)
(2.38099 -0.0339835 0)
(2.37255 -0.0361515 0)
(2.44469 0.0147201 0)
(2.44727 0.0115688 0)
(2.44933 0.0083902 0)
(2.45047 0.00527117 0)
(2.45121 0.00229644 0)
(2.45121 -0.000590118 0)
(2.45117 -0.00335323 0)
(2.45033 -0.00610274 0)
(2.44967 -0.0087298 0)
(2.44789 -0.0113835 0)
(2.44659 -0.0138515 0)
(2.44376 -0.0163876 0)
(2.44198 -0.0186302 0)
(2.438 -0.0210195 0)
(2.43596 -0.0229428 0)
(2.43067 -0.0251547 0)
(2.42873 -0.0266258 0)
(2.42188 -0.0286432 0)
(2.4206 -0.029489 0)
(2.41177 -0.0313415 0)
(2.48305 0.0125271 0)
(2.48521 0.00987114 0)
(2.48696 0.00717684 0)
(2.48786 0.00452329 0)
(2.48839 0.00199205 0)
(2.48814 -0.000464065 0)
(2.48786 -0.00280947 0)
(2.48673 -0.00514188 0)
(2.4858 -0.00736301 0)
(2.48372 -0.00960794 0)
(2.48218 -0.0116861 0)
(2.47906 -0.0138252 0)
(2.47706 -0.0157041 0)
(2.47281 -0.0177146 0)
(2.47059 -0.0193178 0)
(2.46505 -0.021178 0)
(2.46299 -0.0223985 0)
(2.45591 -0.024098 0)
(2.45456 -0.0247964 0)
(2.4455 -0.0263615 0)
(2.51232 0.010519 0)
(2.51423 0.00835079 0)
(2.51582 0.0061412 0)
(2.51663 0.00395882 0)
(2.5171 0.00187816 0)
(2.51677 -0.000142857 0)
(2.5164 -0.00206666 0)
(2.51515 -0.00398093 0)
(2.51411 -0.00579863 0)
(2.51191 -0.0076385 0)
(2.51029 -0.00933411 0)
(2.50705 -0.0110848 0)
(2.50499 -0.0126121 0)
(2.50063 -0.0142565 0)
(2.49838 -0.0155546 0)
(2.49276 -0.0170782 0)
(2.49068 -0.0180626 0)
(2.48353 -0.01946 0)
(2.48219 -0.020021 0)
(2.4731 -0.0213155 0)
(2.53226 0.00851534 0)
(2.5341 0.0068262 0)
(2.53572 0.00510126 0)
(2.5366 0.0033958 0)
(2.53718 0.00177262 0)
(2.53693 0.000193801 0)
(2.53665 -0.0013064 0)
(2.53545 -0.00280155 0)
(2.53449 -0.00421791 0)
(2.53233 -0.00565455 0)
(2.53079 -0.00697291 0)
(2.52761 -0.00833944 0)
(2.52563 -0.00952369 0)
(2.52134 -0.010808 0)
(2.51917 -0.0118116 0)
(2.51363 -0.0130047 0)
(2.51164 -0.0137635 0)
(2.50461 -0.0148634 0)
(2.50333 -0.0152943 0)
(2.4944 -0.0163211 0)
(2.54418 0.00632803 0)
(2.54611 0.00511 0)
(2.54789 0.00387012 0)
(2.54896 0.0026493 0)
(2.54976 0.00149067 0)
(2.54971 0.000366428 0)
(2.54962 -0.000703612 0)
(2.54859 -0.00177435 0)
(2.54781 -0.00278642 0)
(2.54582 -0.00381637 0)
(2.54445 -0.00475749 0)
(2.54144 -0.00573816 0)
(2.53964 -0.00658208 0)
(2.53553 -0.00750529 0)
(2.53352 -0.00821896 0)
(2.52817 -0.00907946 0)
(2.52632 -0.00961773 0)
(2.51951 -0.0104153 0)
(2.51832 -0.0107198 0)
(2.50967 -0.0114698 0)
(2.5504 0.00399237 0)
(2.55247 0.00322008 0)
(2.55443 0.00244964 0)
(2.55571 0.00170237 0)
(2.55673 0.00100235 0)
(2.55689 0.000325353 0)
(2.55699 -0.000316793 0)
(2.55615 -0.000960469 0)
(2.55556 -0.00156538 0)
(2.55376 -0.00218506 0)
(2.55257 -0.00274737 0)
(2.54975 -0.0033389 0)
(2.54812 -0.00384206 0)
(2.5442 -0.00440057 0)
(2.54236 -0.00482479 0)
(2.53721 -0.00534768 0)
(2.53549 -0.00566623 0)
(2.52891 -0.0061534 0)
(2.5278 -0.0063323 0)
(2.51943 -0.00679189 0)
(2.55295 0.00155515 0)
(2.55511 0.00124407 0)
(2.5572 0.000947865 0)
(2.55863 0.000669571 0)
(2.55978 0.00041688 0)
(2.56006 0.000174956 0)
(2.56029 -5.08559e-05 0)
(2.55957 -0.000273886 0)
(2.55908 -0.000480548 0)
(2.5574 -0.000692414 0)
(2.55632 -0.000882564 0)
(2.55362 -0.00108375 0)
(2.55209 -0.00125242 0)
(2.54829 -0.00144198 0)
(2.54654 -0.0015831 0)
(2.54152 -0.00176073 0)
(2.53988 -0.00186585 0)
(2.53344 -0.00203165 0)
(2.53238 -0.00209008 0)
(2.52417 -0.00224628 0)
(1.8896 0.158714 1.48957e-21)
(1.9052 0.145399 0)
(1.91232 0.13191 -2.03544e-22)
(1.91329 0.118451 -5.96746e-21)
(1.90507 0.105386 6.77342e-21)
(1.89452 0.0937313 0)
(1.87234 0.0817178 2.53043e-21)
(1.84025 0.0746211 0)
(1.81529 0.0605933 -4.48044e-22)
(1.63796 0.0483575 2.05592e-23)
(1.92776 0.144919 -1.81282e-21)
(1.94173 0.133908 3.13206e-22)
(1.94785 0.122348 -3.13841e-22)
(1.94764 0.112202 -1.2502e-21)
(1.94185 0.100768 -5.45823e-21)
(1.92619 0.0929553 -2.7462e-22)
(1.92166 0.0820619 0)
(1.87033 0.076563 -3.29542e-21)
(1.89895 0.0694806 0)
(1.75863 0.0550452 8.20013e-22)
(1.97196 0.131025 3.77261e-21)
(1.98221 0.121956 0)
(1.98966 0.111442 -2.84274e-22)
(1.98351 0.103422 -8.97274e-22)
(1.98517 0.0933575 5.7401e-21)
(1.9569 0.0870081 0)
(1.96973 0.079154 7.8094e-21)
(1.90423 0.0717608 3.45263e-21)
(1.94114 0.0691691 0)
(1.84356 0.0576891 -8.11621e-22)
(2.01997 0.118617 -1.7282e-21)
(2.02543 0.110774 6.78964e-21)
(2.03651 0.101634 0)
(2.023 0.0944053 8.67199e-21)
(2.03216 0.0864005 4.14078e-22)
(1.99452 0.0793104 -7.36359e-22)
(2.01258 0.0743319 -7.40292e-21)
(1.94929 0.0656354 -2.38887e-22)
(1.97232 0.0636846 -5.42063e-21)
(1.90414 0.0571345 0)
(2.06984 0.107494 0)
(2.07129 0.100317 -6.63328e-21)
(2.08529 0.0929693 -7.1699e-21)
(2.06757 0.085783 9.39984e-22)
(2.07935 0.0799049 -5.86861e-22)
(2.04099 0.0721938 -3.84651e-22)
(2.0538 0.0685619 -1.12324e-20)
(2.0011 0.0610237 -5.25709e-22)
(2.00974 0.0578131 -1.40137e-21)
(1.95438 0.0545478 4.49236e-21)
(2.12005 0.0973545 2.28947e-21)
(2.11968 0.0906173 4.49649e-22)
(2.13397 0.0848364 -1.25576e-21)
(2.11649 0.0778294 3.82532e-22)
(2.12623 0.0732316 -9.88283e-21)
(2.0929 0.0661564 0)
(2.09823 0.0624833 1.22453e-20)
(2.05468 0.057112 -3.5401e-22)
(2.05575 0.0525111 1.54862e-20)
(2.00339 0.0505308 -1.05142e-20)
(2.16981 0.0879339 -2.30074e-21)
(2.16955 0.0817692 -4.16407e-21)
(2.1822 0.0769381 6.8709e-21)
(2.16745 0.0706376 -1.17659e-20)
(2.17389 0.0664046 -1.50345e-21)
(2.14621 0.0607006 -8.99209e-21)
(2.14704 0.0564428 4.04273e-22)
(2.10832 0.0526622 -7.27509e-22)
(2.10728 0.0473475 -8.1441e-21)
(2.05529 0.0457293 6.00688e-21)
(2.21875 0.0791002 0)
(2.21938 0.073711 9.02876e-21)
(2.23013 0.0693279 -9.34374e-22)
(2.21826 0.0640397 6.3212e-21)
(2.22267 0.0597665 -7.35959e-22)
(2.19887 0.0553248 1.8195e-20)
(2.19858 0.0506637 -7.76388e-21)
(2.16226 0.0476675 0)
(2.16168 0.0423718 0)
(2.11085 0.040828 0)
(2.26641 0.0708404 0)
(2.26781 0.0662764 -8.35396e-21)
(2.2774 0.0621529 -5.21207e-22)
(2.26763 0.0578151 6.6336e-21)
(2.27166 0.053554 1.14711e-20)
(2.25031 0.049947 -1.03327e-20)
(2.25078 0.0453197 9.36586e-21)
(2.21663 0.0426779 -4.93757e-22)
(2.21717 0.0377811 0)
(2.16901 0.0361754 5.15406e-21)
(2.31198 0.0631423 3.05758e-22)
(2.31384 0.0593053 4.77e-21)
(2.32306 0.0554732 7.26179e-21)
(2.31479 0.0518575 -3.62578e-22)
(2.31941 0.0478236 8.33483e-22)
(2.3002 0.0447196 -1.17087e-20)
(2.30199 0.0404445 1.07648e-20)
(2.27072 0.0379855 -5.33248e-22)
(2.27229 0.0335507 0)
(2.22815 0.0318206 -1.08525e-20)
(2.35449 0.0559495 0)
(2.35669 0.0526972 4.8032e-21)
(2.36594 0.0492506 2.53602e-22)
(2.35908 0.0461556 0)
(2.36457 0.0425218 0)
(2.34781 0.0397528 1.04085e-20)
(2.35085 0.0359484 -8.92001e-21)
(2.3233 0.0336018 -4.92606e-22)
(2.32566 0.0296035 2.78007e-22)
(2.28667 0.0277677 5.8982e-21)
(2.39299 0.0491821 0)
(2.3956 0.0464017 -9.17708e-21)
(2.40491 0.0434082 -9.69333e-21)
(2.39967 0.0407159 1.42502e-21)
(2.40591 0.0375611 -9.04507e-22)
(2.39208 0.035059 -7.01991e-22)
(2.39611 0.0317394 1.3021e-21)
(2.37296 0.0294978 8.08919e-21)
(2.37591 0.0259394 7.41338e-22)
(2.34297 0.02406 -2.20291e-22)
(2.42658 0.0427739 0)
(2.42974 0.040397 4.95348e-21)
(2.43898 0.0378786 -5.31553e-22)
(2.43558 0.0355335 5.27163e-22)
(2.44232 0.0328698 0)
(2.43178 0.0306182 0)
(2.43651 0.0277757 0)
(2.41824 0.025676 -9.17268e-21)
(2.42162 0.0225768 8.38924e-21)
(2.39533 0.0207274 0)
(2.4544 0.0366862 0)
(2.45824 0.0346761 3.18325e-21)
(2.46721 0.0326179 4.03059e-21)
(2.46582 0.0305986 5.11563e-21)
(2.47275 0.0284053 -9.61366e-22)
(2.46568 0.0264157 5.75198e-21)
(2.4708 0.0240373 -4.98889e-21)
(2.45764 0.0221317 0)
(2.46125 0.0194945 6.56171e-22)
(2.44185 0.0177513 -7.77139e-21)
(2.47566 0.0308832 -7.22377e-22)
(2.4803 0.0292203 -2.58682e-21)
(2.48885 0.0275839 -5.2121e-21)
(2.48949 0.0258877 -3.60162e-21)
(2.49634 0.024127 0)
(2.49268 0.0224254 -7.29308e-21)
(2.4979 0.020484 7.17881e-21)
(2.48971 0.0188248 -6.73352e-22)
(2.49335 0.0166327 -4.16439e-21)
(2.48061 0.0150739 1.13618e-20)
(2.49003 0.0252801 7.26085e-22)
(2.49552 0.0239567 -2.02863e-21)
(2.50362 0.0226942 1.776e-21)
(2.50617 0.0213304 -4.31177e-21)
(2.51277 0.0199558 0)
(2.5122 0.0185726 0)
(2.51728 0.017029 7.06622e-22)
(2.51351 0.0156648 -6.59376e-21)
(2.51704 0.0138906 -3.87475e-21)
(2.51014 0.0125912 -3.86896e-21)
(2.49824 0.0197323 0)
(2.50458 0.0187505 3.31506e-21)
(2.51229 0.0178219 -1.1912e-21)
(2.51644 0.0168015 3.85781e-21)
(2.52274 0.01577 1.02085e-21)
(2.52463 0.0147257 -8.19038e-22)
(2.5295 0.0135397 1.52165e-21)
(2.52915 0.0125014 4.5583e-21)
(2.53257 0.0111173 0)
(2.53013 0.0101264 0)
(2.50231 0.014137 0)
(2.5093 0.0135005 1.36161e-21)
(2.51671 0.0128859 -2.44631e-21)
(2.52197 0.0122112 0)
(2.52801 0.0114965 -1.97713e-21)
(2.53155 0.0107859 -8.31466e-22)
(2.53622 0.00992987 -2.28767e-21)
(2.53814 0.00920619 -6.41704e-22)
(2.5415 0.00818912 3.42817e-22)
(2.54195 0.00749288 2.71101e-22)
(2.50444 0.00849954 0)
(2.51174 0.00819932 -1.36814e-21)
(2.51889 0.00790482 -1.21384e-21)
(2.52475 0.00757746 1.64812e-21)
(2.53056 0.00718963 9.36344e-22)
(2.535 0.00680309 8.84145e-22)
(2.53953 0.00628406 3.83128e-21)
(2.54266 0.00584856 -2.73385e-21)
(2.54603 0.00519309 6.26753e-22)
(2.54803 0.00474125 0)
(2.50556 0.00269452 0)
(2.51293 0.00271548 6.64853e-22)
(2.51991 0.00273438 -6.3094e-22)
(2.52597 0.00273119 5.90986e-22)
(2.53164 0.00268177 0)
(2.53642 0.00261132 -8.88542e-22)
(2.54088 0.0024648 7.4732e-22)
(2.54448 0.00232232 6.4517e-22)
(2.54785 0.00207573 0)
(2.55048 0.00187266 0)
(1.24276 0.282007 0)
(1.19104 0.308446 -5.74176e-20)
(1.15011 0.343303 0)
(1.11686 0.387861 -1.90457e-19)
(1.08757 0.441492 7.28755e-20)
(1.0602 0.506254 2.59712e-21)
(1.03267 0.5836 6.06754e-20)
(0.9869 0.663196 -8.89732e-21)
(0.853065 0.682878 0)
(0.486212 0.427828 5.78323e-20)
(1.32908 0.284527 1.04317e-19)
(1.2796 0.318293 5.74158e-20)
(1.24114 0.352005 -5.40363e-20)
(1.2096 0.395088 6.4146e-20)
(1.18279 0.448348 -5.33154e-20)
(1.15993 0.512758 8.85118e-21)
(1.13856 0.589066 -6.32271e-20)
(1.09755 0.665637 -1.23121e-19)
(0.956554 0.679127 -3.26836e-20)
(0.544184 0.416761 -8.42422e-20)
(1.41086 0.282521 -4.5742e-20)
(1.3669 0.318643 4.72798e-20)
(1.33141 0.351784 5.40341e-20)
(1.30103 0.39396 5.51545e-20)
(1.27617 0.446541 5.59499e-20)
(1.25749 0.509737 5.60556e-20)
(1.24166 0.583492 1.04372e-20)
(1.20377 0.654503 5.15122e-20)
(1.05282 0.659383 1.7192e-20)
(0.593416 0.393325 -1.83521e-20)
(1.49112 0.277861 9.13763e-20)
(1.45144 0.314063 -4.72774e-20)
(1.41825 0.346047 0)
(1.38901 0.386592 0)
(1.36608 0.437302 0)
(1.35112 0.497909 3.95791e-20)
(1.33967 0.567413 -3.20476e-20)
(1.30232 0.630311 0)
(1.13756 0.624179 9.91943e-21)
(0.629584 0.358215 -1.90749e-20)
(1.56745 0.270128 -1.63915e-20)
(1.53064 0.30499 6.07587e-20)
(1.49927 0.335482 0)
(1.47145 0.37385 0)
(1.45059 0.421593 1.62733e-20)
(1.43888 0.478285 1.47316e-20)
(1.43026 0.541953 2.19961e-20)