/*--------------------------------*- C++ -*----------------------------------*\
| =========                 |                                                 |
| \\      /  F ield         | OpenFOAM: The Open Source CFD Toolbox           |
|  \\    /   O peration     | Version:  4.1                                   |
|   \\  /    A nd           | Web:      www.OpenFOAM.org                      |
|    \\/     M anipulation  |                                                 |
\*---------------------------------------------------------------------------*/
FoamFile
{
    version     2.0;
    format      ascii;
    class       volScalarField;
    location    "13.5";
    object      p;
}
// * * * * * * * * * * * * * * * * * * * * * * * * * * * * * * * * * * * * * //

dimensions      [0 2 -2 0 0 0 0];

internalField   nonuniform List<scalar> 
2000
(
-0.0554212
-0.0458673
-0.0371609
-0.0288602
-0.0211091
-0.013811
-0.00659492
-0.000191549
0.00713551
0.00929364
-0.0729209
-0.0598418
-0.048835
-0.0385209
-0.0287112
-0.0193084
-0.0102049
-0.00166518
0.00691799
0.0125232
-0.0939476
-0.0768103
-0.0632644
-0.0504899
-0.0378264
-0.0253966
-0.0133828
-0.00203236
0.00881621
0.0182618
-0.118402
-0.0967392
-0.0802983
-0.064176
-0.0474273
-0.0308232
-0.0150134
-0.000348227
0.0133843
0.0251024
-0.145372
-0.118966
-0.0989628
-0.0780477
-0.0557445
-0.0339281
-0.0137232
0.00458497
0.0210382
0.0352674
-0.17309
-0.142031
-0.117194
-0.0896778
-0.0605365
-0.0328837
-0.0080501
0.0138475
0.0330532
0.0497388
-0.198718
-0.163532
-0.131976
-0.096161
-0.0594894
-0.02593
0.00336417
0.0286457
0.05046
0.0695854
-0.218671
-0.180078
-0.139913
-0.0947235
-0.0505565
-0.0115255
0.0217734
0.0500601
0.074326
0.0957463
-0.229211
-0.187682
-0.13781
-0.0831135
-0.0321182
0.0116028
0.0482388
0.0790334
0.105426
0.128696
-0.227022
-0.182665
-0.12295
-0.0596918
-0.00303869
0.0443731
0.0835509
0.116253
0.144298
0.168745
0.0139628
0.0107104
0.00954442
0.00896097
0.00863826
0.00857466
0.00875004
0.00912042
0.0095961
0.00998328
0.0124501
0.00941082
0.0083856
0.00790626
0.00768989
0.00775106
0.00808081
0.00865908
0.00942677
0.0100303
0.00953372
0.00693768
0.00617778
0.00592355
0.00593902
0.0062644
0.0069133
0.00789222
0.00923327
0.0104741
0.00543717
0.00347012
0.00312184
0.00323466
0.00362079
0.00435566
0.00548799
0.00702351
0.0091623
0.0122502
0.000373704
-0.000808481
-0.000577414
6.39155e-05
0.000962531
0.00222914
0.00397636
0.00628428
0.00957022
0.0139457
-0.00553197
-0.00577693
-0.00476313
-0.00341247
-0.00185964
3.43143e-05
0.00245808
0.00556912
0.00996684
0.0171194
-0.0123117
-0.0114287
-0.00937472
-0.00710944
-0.00472537
-0.00209677
0.00106437
0.00498327
0.00986441
0.0209035
-0.0202025
-0.0178335
-0.0145689
-0.0111033
-0.00766473
-0.00414431
-0.000156459
0.00465472
0.00935674
0.0232483
-0.0296447
-0.0253781
-0.0205868
-0.0156848
-0.0109988
-0.00642099
-0.00151827
0.00405885
0.00912591
0.0228815
-0.0411715
-0.0345489
-0.0279213
-0.0214071
-0.0152977
-0.00950829
-0.0035841
0.0022315
0.00835916
0.0168928
0.0101315
0.0103978
0.0106531
0.010845
0.0109671
0.0110106
0.010966
0.0108257
0.0105844
0.0102374
0.00978079
0.00920968
0.00851807
0.00769954
0.00675122
0.00567332
0.00444205
0.00297447
0.00129989
0.000100803
0.00986969
0.0102262
0.0105975
0.0108628
0.0110413
0.0111327
0.0111278
0.0110201
0.0108056
0.0104812
0.0100443
0.00949078
0.0088142
0.00800539
0.00706124
0.00597919
0.0047372
0.00325048
0.00150503
0.000144017
0.009465
0.0100678
0.0106678
0.0110613
0.0113404
0.0115178
0.0115837
0.0115332
0.0113644
0.0110767
0.0106702
0.0101439
0.0094873
0.00867744
0.00772645
0.00662224
0.00534114
0.00380222
0.00193673
0.000265105
0.00866808
0.0101982
0.0110949
0.0116339
0.0120418
0.0123298
0.0124894
0.0125151
0.0124052
0.0121609
0.0117867
0.0112886
0.0106529
0.00977713
0.00880196
0.00764683
0.00628526
0.00464964
0.00261754
0.00041782
0.00934154
0.0101896
0.0117286
0.0126453
0.0131921
0.0135968
0.0138763
0.0140071
0.0139791
0.0137941
0.0134543
0.0129579
0.0122939
0.0114352
0.0103877
0.00912428
0.00760787
0.00577235
0.00350192
0.000904479
0.00966303
0.0100576
0.0124639
0.0139303
0.0146481
0.0151798
0.0156136
0.015884
0.0159669
0.0158659
0.0155808
0.0151029
0.0144219
0.0135207
0.0123834
0.0109802
0.00926435
0.00716277
0.00458615
0.00142268
0.0106354
0.0097945
0.013336
0.0156691
0.0164647
0.0170212
0.0175789
0.0179788
0.0181633
0.0181619
0.0179568
0.0175159
0.0168309
0.0158756
0.0146288
0.0130605
0.0111145
0.00868372
0.00572606
0.00195346
0.0107058
0.00818578
0.0121515
0.0153823
0.01698
0.0180134
0.018991
0.0197711
0.0202339
0.0203947
0.0202946
0.0198905
0.0192263
0.018225
0.0168543
0.0151211
0.0129333
0.0101363
0.00674882
0.00239575
0.0114359
0.00916362
0.0139066
0.0173375
0.0187897
0.0199076
0.021023
0.0218735
0.0223859
0.0226169
0.0225586
0.0222008
0.0214462
0.0202789
0.0185745
0.0167482
0.0143613
0.0112428
0.00747162
0.00265341
0.00718024
0.0088054
0.0142163
0.0173498
0.0193863
0.0212952
0.022855
0.0238703
0.0244423
0.0246785
0.024615
0.0242106
0.0234321
0.0222419
0.0207391
0.0183452
0.0155581
0.0120647
0.00794848
0.00281295
0.0192699
0.0212625
0.0208376
0.0212712
0.0226377
0.0241196
0.0252102
0.0258634
0.026187
0.0262258
0.0259662
0.0253508
0.0243603
0.0229356
0.0210933
0.0186485
0.0157596
0.012077
0.007857
0.00273436
0.019421
0.0220418
0.0234258
0.0245227
0.0256359
0.0266266
0.027304
0.0276368
0.0276685
0.0274125
0.0268619
0.0259714
0.0247265
0.0230639
0.0209927
0.0183961
0.0152963
0.0116242
0.00743767
0.00252292
0.0272229
0.0276192
0.0285314
0.0292339
0.0296925
0.0299052
0.0299511
0.0297987
0.0294149
0.0287741
0.0278647
0.0266514
0.0251167
0.0232014
0.0209084
0.0181589
0.0149709
0.0112627
0.00711285
0.00243151
0.0357211
0.0335477
0.033428
0.0337708
0.0337674
0.0334174
0.032852
0.0321747
0.0313344
0.030286
0.0289996
0.0274473
0.0256023
0.023433
0.0209156
0.0180094
0.0147067
0.0109875
0.0068698
0.00238932
0.0445759
0.0406579
0.0393602
0.0389781
0.0383769
0.0373806
0.0361719
0.0348668
0.0334957
0.0319983
0.0303152
0.0284048
0.0262411
0.023802
0.0210543
0.0179879
0.0145684
0.0108259
0.006718
0.00236747
0.0539905
0.0487083
0.0460391
0.0446139
0.0432331
0.0415434
0.0396656
0.0377539
0.0358415
0.0338731
0.0317724
0.0294987
0.0270119
0.024302
0.0213263
0.018095
0.0145534
0.0107609
0.00663949
0.00234991
0.0637428
0.0571131
0.0530443
0.0504844
0.0482472
0.0458482
0.0433161
0.0407966
0.0383326
0.03588
0.0333554
0.0307125
0.0279012
0.0249175
0.0217126
0.0183065
0.0146353
0.0107673
0.00661298
0.00233309
0.0733304
0.0654759
0.0601472
0.0564922
0.0533774
0.0502531
0.0470711
0.0439493
0.0409337
0.0379919
0.0350384
0.0320228
0.0288865
0.0256263
0.0221899
0.0186007
0.0147917
0.0108294
0.00662485
0.0023215
0.0824774
0.0736411
0.0672311
0.0625484
0.0585553
0.054695
0.0508673
0.0471562
0.0435995
0.0401727
0.0367915
0.0334041
0.0299442
0.0264079
0.0227391
0.0189621
0.0150076
0.0109386
0.00666742
0.00232158
0.0911049
0.0815324
0.0741915
0.0685412
0.0636821
0.059091
0.0546334
0.0503561
0.0462793
0.0423819
0.038582
0.0348297
0.0310519
0.0272443
0.0233443
0.0193787
0.0152725
0.0110899
0.00673715
0.00233894
0.099141
0.0890554
0.0809088
0.0743462
0.0686474
0.0633503
0.0582945
0.0534856
0.0489195
0.0445753
0.0403748
0.0362715
0.0321861
0.0281163
0.0239899
0.0198391
0.0155773
0.0112785
0.00683168
0.00237572
0.106478
0.0960912
0.0872592
0.0798456
0.0733493
0.0673885
0.0617798
0.0564842
0.0514686
0.0467073
0.0421338
0.0377003
0.0333247
0.0290047
0.02466
0.0203289
0.0159116
0.0114953
0.00694569
0.00242642
0.11304
0.102527
0.0931281
0.0849418
0.0777085
0.0711395
0.0650311
0.0592992
0.0538818
0.048751
0.0438229
0.0390792
0.0344314
0.0298783
0.0253297
0.0208275
0.0162611
0.0117268
0.00707115
0.00247878
0.118827
0.108281
0.0984233
0.0895648
0.0816749
0.0745614
0.068009
0.0618882
0.0561089
0.0506368
0.0454013
0.0403783
0.0354843
0.0307152
0.0259794
0.0213143
0.0166087
0.0119543
0.0071983
0.00251878
0.123893
0.113309
0.103083
0.0936712
0.0852243
0.0776316
0.0706846
0.0642197
0.0581247
0.052354
0.0468453
0.0415718
0.0364584
0.0314912
0.0265878
0.0217682
0.0169379
0.012162
0.00731661
0.00253417
0.128267
0.11758
0.107062
0.0972216
0.0883245
0.0803289
0.0730388
0.0662724
0.059905
0.0538757
0.0481307
0.0426357
0.0373307
0.0321847
0.0271352
0.0221723
0.0172346
0.0123393
0.00741763
0.00252175
0.131913
0.121045
0.110296
0.10016
0.0909331
0.082614
0.0750357
0.0680126
0.0614164
0.0551699
0.0492278
0.0435442
0.0380778
0.0327766
0.0276047
0.0225145
0.0174881
0.0124821
0.00749857
0.00249065
0.134747
0.123674
0.112754
0.102425
0.092972
0.084413
0.0766111
0.0693848
0.0626095
0.056193
0.050098
0.0442649
0.0386721
0.0332458
0.027978
0.0227839
0.0176886
0.01259
0.00755879
0.00245424
0.136777
0.125511
0.114451
0.103986
0.0943825
0.0856614
0.077705
0.0703367
0.0634374
0.0569033
0.0507034
0.0447665
0.0390863
0.0335721
0.0282379
0.0229702
0.0178274
0.0126626
0.00759802
0.00242371
0.137996
0.126595
0.11541
0.104842
0.0951446
0.0863305
0.0782873
0.0708408
0.0638741
0.0572776
0.0510219
0.0450306
0.0393039
0.033744
0.028374
0.0230689
0.0178995
0.0127022
0.00761747
0.00240997
0.188161
0.148262
0.114693
0.0872723
0.065795
0.0494916
0.037648
0.0286926
0.0231606
0.0118169
0.204266
0.165587
0.132683
0.105084
0.0828279
0.064639
0.0510645
0.0381441
0.0309596
0.0165566
0.21916
0.181964
0.150095
0.122585
0.0999325
0.0798821
0.0647339
0.0487391
0.0407936
0.0271291
0.23277
0.196913
0.165945
0.138431
0.115543
0.0942594
0.078442
0.0616342
0.0532268
0.0394792
0.245102
0.210357
0.180125
0.152642
0.129743
0.108032
0.0920535
0.0750819
0.0651874
0.0505001
0.256255
0.222478
0.192924
0.165647
0.142923
0.121176
0.104828
0.08738
0.0759429
0.0608759
0.266319
0.233432
0.20454
0.177606
0.155072
0.133325
0.116457
0.0986603
0.0864848
0.0715277
0.275353
0.243291
0.215022
0.188478
0.166089
0.144396
0.127222
0.109488
0.097025
0.0821725
0.283385
0.252078
0.224371
0.198235
0.176004
0.15451
0.137279
0.119782
0.107007
0.0922593
0.29045
0.25983
0.232621
0.206916
0.184884
0.163697
0.146467
0.129193
0.116056
0.101558
0.296609
0.266628
0.239856
0.21459
0.192767
0.17191
0.154647
0.137586
0.12416
0.109991
0.3019
0.272546
0.246164
0.22133
0.1997
0.179155
0.161858
0.145011
0.131399
0.117478
0.306408
0.277614
0.251619
0.227205
0.205771
0.185508
0.168224
0.151546
0.137838
0.123999
0.310203
0.281927
0.256323
0.232305
0.211085
0.191065
0.173849
0.157273
0.143537
0.129671
0.313402
0.285605
0.260377
0.236717
0.215722
0.195911
0.178793
0.162291
0.148556
0.134683
0.31608
0.28872
0.263832
0.240499
0.219711
0.200106
0.183068
0.166684
0.152918
0.13915
0.318257
0.291294
0.26669
0.243668
0.223042
0.203667
0.186662
0.170466
0.156598
0.143031
0.319889
0.293293
0.268921
0.246201
0.225692
0.206571
0.189553
0.173583
0.159557
0.14618
0.32087
0.294606
0.270436
0.248005
0.227603
0.208733
0.191705
0.175946
0.16177
0.14851
0.321141
0.295098
0.271071
0.24886
0.22856
0.209889
0.192891
0.177294
0.163057
0.149871
0.784864
0.786014
0.779525
0.766982
0.749642
0.727114
0.69699
0.656056
0.606025
0.578559
0.73362
0.730753
0.716268
0.697171
0.674584
0.646414
0.609366
0.560046
0.500245
0.465572
0.6761
0.667765
0.647184
0.623031
0.595625
0.561826
0.517966
0.46065
0.391648
0.35023
0.609309
0.59683
0.572767
0.545223
0.513796
0.474921
0.424925
0.360608
0.283428
0.236429
0.538317
0.522497
0.496042
0.465898
0.431055
0.387802
0.332656
0.262904
0.17899
0.128362
0.467218
0.448252
0.419898
0.387657
0.34997
0.303084
0.243712
0.170264
0.0818368
0.0307745
0.398131
0.376314
0.346622
0.312877
0.273038
0.223462
0.16088
0.0840389
-0.00139003
-0.0536935
0.332478
0.308433
0.278117
0.243619
0.20247
0.151447
0.0874085
0.0103965
-0.0708743
-0.122836
0.271602
0.246238
0.216128
0.181672
0.140183
0.0889367
0.0256234
-0.0490422
-0.124975
-0.174985
0.216285
0.191254
0.162024
0.12808
0.0872537
0.0372876
-0.0235211
-0.0935744
-0.16225
-0.209511
1.06275
1.07099
1.08055
1.09147
1.10375
1.11727
1.13156
1.14535
1.15785
1.17523
1.05987
1.06751
1.07663
1.08705
1.09869
1.11142
1.12476
1.13739
1.14855
1.1652
1.05381
1.06024
1.06848
1.07791
1.0883
1.09947
1.11089
1.12119
1.12983
1.1448
1.044
1.04861
1.05554
1.06353
1.07207
1.08095
1.08954
1.0964
1.10129
1.1137
1.02968
1.03186
1.0371
1.04323
1.04937
1.05526
1.06016
1.06253
1.06246
1.07141
1.00998
1.00908
1.01228
1.01619
1.01946
1.02173
1.02217
1.01906
1.01289
1.01748
0.984039
0.979492
0.98044
0.98187
0.981812
0.979864
0.975101
0.965628
0.952268
0.951637
0.950304
0.941711
0.940588
0.939531
0.935844
0.929221
0.918681
0.902087
0.880567
0.873939
0.908288
0.895989
0.893411
0.889555
0.881644
0.869842
0.853029
0.828694
0.798191
0.784947
0.852626
0.841542
0.83908
0.832032
0.81947
0.802226
0.778798
0.746253
0.706129
0.685863
1.00031
1.00124
1.00273
1.00439
1.00604
1.00771
1.00947
1.01135
1.01339
1.0156
1.018
1.02063
1.02353
1.02674
1.03031
1.0343
1.03876
1.04377
1.04938
1.05569
1.00031
1.00124
1.0027
1.00432
1.00593
1.00756
1.00927
1.01111
1.01309
1.01523
1.01756
1.02011
1.02291
1.02601
1.02945
1.03328
1.03755
1.04231
1.04762
1.05357
1.00033
1.00124
1.00262
1.00415
1.00567
1.00722
1.00884
1.01058
1.01244
1.01446
1.01663
1.01901
1.02161
1.02447
1.02762
1.0311
1.03495
1.03921
1.04388
1.04905
1.00034
1.00121
1.00246
1.00385
1.00525
1.00666
1.00814
1.00971
1.01139
1.01318
1.0151
1.01719
1.01945
1.02192
1.0246
1.02751
1.03067
1.0341
1.03771
1.04161
1.00034
1.00113
1.0022
1.00339
1.0046
1.00581
1.00707
1.00839
1.0098
1.01127
1.01283
1.01449
1.01626
1.01813
1.02011
1.02218
1.02431
1.02648
1.02851
1.03051
1.00032
1.00099
1.00182
1.00274
1.00368
1.00463
1.00559
1.0066
1.00759
1.00861
1.00966
1.01073
1.0118
1.01285
1.01384
1.01471
1.0154
1.01582
1.01564
1.01492
1.00025
1.00075
1.00127
1.00185
1.00245
1.00304
1.00362
1.00414
1.00462
1.00506
1.00545
1.00574
1.00588
1.00581
1.00547
1.00472
1.00344
1.00147
0.99841
0.994161
1.00011
1.00035
1.00053
1.0007
1.00087
1.001
1.00104
1.001
1.00085
1.00057
1.00011
0.999388
0.998351
0.99687
0.994847
0.992044
0.988302
0.98318
0.976259
0.96682
0.999895
0.999737
0.999517
0.999246
0.998907
0.998464
0.997893
0.997167
0.996249
0.995069
0.993563
0.991608
0.989124
0.985875
0.98179
0.976382
0.96967
0.960557
0.949177
0.932845
0.999689
0.998988
0.998322
0.997587
0.996663
0.995531
0.994211
0.992663
0.990817
0.988545
0.985762
0.982256
0.977943
0.972374
0.965541
0.956387
0.945375
0.929841
0.912161
0.885587
0.999428
0.998261
0.997244
0.996039
0.994449
0.992524
0.990361
0.987909
0.985052
0.981586
0.977412
0.972234
0.965972
0.957991
0.948339
0.935535
0.920184
0.898143
0.871519
0.826652
0.999147
0.99765
0.996301
0.994535
0.992166
0.989406
0.986441
0.98316
0.979382
0.974843
0.96947
0.962899
0.955116
0.945323
0.933733
0.918579
0.900845
0.876445
0.848936
0.810419
0.999662
0.997979
0.996056
0.993282
0.989767
0.986056
0.982331
0.978277
0.973609
0.968025
0.961522
0.953682
0.944567
0.93326
0.920156
0.903379
0.884353
0.859236
0.832296
0.795829
0.999248
0.999236
0.997369
0.992705
0.987292
0.98243
0.978016
0.973245
0.967681
0.96104
0.953428
0.944386
0.934049
0.921401
0.907035
0.889
0.869106
0.843441
0.816757
0.781012
0.999391
1.0016
0.999315
0.991864
0.984161
0.978262
0.973368
0.967972
0.961528
0.953851
0.945192
0.935043
0.923608
0.909797
0.894386
0.875362
0.854821
0.828768
0.802291
0.767472
0.999506
1.00325
0.99986
0.989532
0.980082
0.973748
0.968576
0.962505
0.955141
0.946478
0.936863
0.925717
0.9133
0.898486
0.882198
0.862421
0.841393
0.815221
0.789002
0.755321
0.994568
0.993105
0.989214
0.980664
0.973835
0.969051
0.96382
0.956832
0.948466
0.938922
0.928491
0.91648
0.90318
0.887511
0.870471
0.850155
0.828762
0.80272
0.77674
0.744283
0.99892
0.979433
0.962036
0.960363
0.96394
0.963995
0.959048
0.950893
0.941497
0.931238
0.920159
0.907428
0.893344
0.876964
0.859283
0.838618
0.816944
0.791211
0.765407
0.734193
0.993301
0.960612
0.940688
0.946245
0.957425
0.960643
0.955364
0.945816
0.935279
0.92424
0.91246
0.899014
0.884164
0.867162
0.848902
0.828016
0.806099
0.780764
0.755067
0.725034
0.992692
0.956302
0.935059
0.942514
0.955415
0.958627
0.952225
0.941465
0.92996
0.91813
0.905565
0.891382
0.875801
0.858273
0.839515
0.818496
0.796378
0.771454
0.745834
0.716833
0.996905
0.971431
0.955224
0.957585
0.962033
0.959248
0.950092
0.938271
0.926016
0.913322
0.899804
0.884795
0.868505
0.850513
0.831341
0.810218
0.787949
0.763361
0.737835
0.709631
0.99023
0.992784
0.998665
0.99228
0.978751
0.963972
0.950122
0.936996
0.923955
0.910205
0.895528
0.879562
0.862555
0.844105
0.824583
0.803319
0.780948
0.756538
0.731158
0.703445
1.00126
1.02152
1.03167
1.01612
0.990124
0.967028
0.949782
0.935766
0.922216
0.907634
0.89199
0.8752
0.857627
0.838797
0.819048
0.797624
0.775241
0.750854
0.725711
0.698167
1.00765
1.03642
1.04739
1.02726
0.995268
0.967903
0.948944
0.934524
0.920676
0.905467
0.889071
0.871608
0.853602
0.834448
0.814551
0.792949
0.770611
0.74615
0.721304
0.693743
1.00998
1.04447
1.05662
1.03227
0.995653
0.965955
0.946696
0.932613
0.918824
0.903254
0.886351
0.868407
0.850085
0.830673
0.810655
0.788916
0.766629
0.742148
0.717577
0.690124
1.00664
1.04862
1.06911
1.04058
0.996094
0.962304
0.942372
0.928942
0.915673
0.90017
0.88319
0.865126
0.846655
0.827096
0.806961
0.785195
0.762931
0.738616
0.714221
0.687201
0.975374
0.985629
1.01504
1.01345
0.99148
0.965967
0.9448
0.927851
0.91251
0.896681
0.879978
0.862177
0.843683
0.824026
0.803717
0.781989
0.759691
0.735677
0.711342
0.684913
1.0021
0.940626
0.88918
0.903109
0.935921
0.950232
0.942757
0.925279
0.90745
0.891411
0.875823
0.859035
0.840896
0.821337
0.800934
0.779327
0.757024
0.733349
0.709059
0.683134
1.00741
0.942493
0.87786
0.885026
0.921214
0.940773
0.937227
0.92232
0.905535
0.889521
0.873746
0.856978
0.83891
0.819484
0.799067
0.777564
0.755244
0.731809
0.707558
0.681992
0.971072
0.987083
1.02373
1.0112
0.974699
0.946627
0.931251
0.919777
0.906552
0.890934
0.873997
0.856338
0.837976
0.81861
0.798217
0.77676
0.754389
0.731065
0.706832
0.681514
0.779026
0.723975
0.667563
0.60532
0.538574
0.471714
0.406979
0.345173
0.287345
0.234525
0.773103
0.715756
0.656362
0.596933
0.534156
0.470691
0.409595
0.351598
0.297543
0.248322
0.761573
0.706349
0.645974
0.588829
0.530587
0.470913
0.413095
0.358467
0.307742
0.261158
0.749378
0.69782
0.637873
0.581749
0.527124
0.471244
0.416515
0.36479
0.316924
0.272752
0.73761
0.689381
0.630859
0.57549
0.523692
0.471543
0.419938
0.370788
0.32537
0.283299
0.726471
0.681086
0.624691
0.57033
0.520704
0.471894
0.423354
0.376562
0.333216
0.29292
0.715938
0.672971
0.619115
0.56617
0.518311
0.472322
0.426656
0.38207
0.340496
0.301679
0.705992
0.665111
0.614056
0.562946
0.516653
0.472935
0.429797
0.387242
0.347204
0.30962
0.696714
0.657627
0.609501
0.56056
0.515735
0.47377
0.432709
0.391965
0.353281
0.316746
0.688264
0.650709
0.605465
0.558867
0.515444
0.474789
0.435324
0.396127
0.35865
0.323053
0.680883
0.644635
0.602001
0.557683
0.515567
0.475879
0.437576
0.39965
0.363229
0.328515
0.674778
0.639661
0.59915
0.55679
0.515829
0.476878
0.439419
0.402524
0.367001
0.333002
0.669922
0.635813
0.59685
0.555964
0.515958
0.477621
0.440827
0.404799
0.37014
0.336953
0.666136
0.632884
0.594943
0.555049
0.515792
0.47802
0.441819
0.406552
0.37269
0.340229
0.663072
0.630431
0.593167
0.553959
0.515315
0.478091
0.442457
0.407876
0.374724
0.342926
0.660335
0.628021
0.591325
0.552751
0.514679
0.477978
0.442864
0.408883
0.376344
0.34514
0.657813
0.625595
0.589475
0.551588
0.514077
0.47783
0.443137
0.409646
0.377609
0.346916
0.655636
0.623377
0.587755
0.550505
0.513478
0.477581
0.443195
0.410092
0.378464
0.348214
0.654205
0.621826
0.586465
0.549588
0.512823
0.477104
0.442891
0.410071
0.37877
0.348907
0.653637
0.621211
0.585933
0.549132
0.512357
0.476603
0.442389
0.409679
0.378544
0.34893
)
;

boundaryField
{
    bottom
    {
        type            symmetryPlane;
    }
    right
    {
        type            fixedValue;
        value           uniform 0;
    }
    top
    {
        type            symmetryPlane;
    }
    left
    {
        type            fixedValue;
        value           uniform 1;
    }
    cylinder
    {
        type            zeroGradient;
    }
    defaultFaces
    {
        type            empty;
    }
}


// ************************************************************************* //
