/*--------------------------------*- C++ -*----------------------------------*\
| =========                 |                                                 |
| \\      /  F ield         | OpenFOAM: The Open Source CFD Toolbox           |
|  \\    /   O peration     | Version:  4.1                                   |
|   \\  /    A nd           | Web:      www.OpenFOAM.org                      |
|    \\/     M anipulation  |                                                 |
\*---------------------------------------------------------------------------*/
FoamFile
{
    version     2.0;
    format      ascii;
    class       surfaceScalarField;
    location    "13.1";
    object      phi;
}
// * * * * * * * * * * * * * * * * * * * * * * * * * * * * * * * * * * * * * //

dimensions      [0 3 -1 0 0 0 0];

internalField   nonuniform List<scalar> 
3890
(
0.000359634
0.00138849
-0.00174812
0.00226314
-0.000796668
-0.00110684
0.00624422
-0.00611847
0.00213739
0.0125113
-0.0134509
0.00718381
0.0208518
-0.0217116
0.013371
0.0307167
-0.0299215
0.0200566
0.0414169
-0.0373861
0.0266859
0.0524015
-0.0437518
0.0327672
0.0631398
-0.0491663
0.0384281
-0.052739
0.0427494
0.0731294
0.000636419
0.000752071
0.00342688
-0.00358714
0.00885346
-0.011545
0.016784
-0.0213814
0.0264962
-0.0314238
0.0370297
-0.040455
0.0475408
-0.0478972
0.057489
-0.0536999
0.0664364
-0.0581138
-0.0611714
0.0748689
0.00100414
-0.000252071
0.00483947
-0.00742247
0.0117104
-0.018416
0.020862
-0.030533
0.0310173
-0.0415791
0.0410281
-0.0504658
0.0501996
-0.0570687
0.0582852
-0.0617856
0.065374
-0.0652026
-0.0676997
0.0719023
0.00145717
-0.00170924
0.00639973
-0.012365
0.0144194
-0.0264356
0.0239926
-0.0401062
0.0335391
-0.0511256
0.0421076
-0.0590343
0.0494231
-0.0643841
0.0556648
-0.0680274
0.0611799
-0.0707177
-0.0729006
0.0663808
0.0019766
-0.00368584
0.00792245
-0.0183109
0.0165017
-0.0350149
0.0255958
-0.0492002
0.0337632
-0.0592931
0.0405351
-0.0658062
0.0460893
-0.0699383
0.0508528
-0.0727909
0.0552379
-0.0751027
-0.0772823
0.0596196
0.00251835
-0.00620419
0.00916418
-0.0249567
0.017578
-0.0434287
0.025502
-0.0571243
0.0319762
-0.0657673
0.0370364
-0.0708664
0.0411383
-0.0740402
0.0447634
-0.076416
0.0482629
-0.0786022
-0.0808349
0.0518155
0.00301458
-0.00921878
0.00990025
-0.0318424
0.0175129
-0.0510414
0.0239171
-0.0635284
0.0287183
-0.0705685
0.0323031
-0.0744511
0.035221
-0.0769581
0.0378957
-0.0790908
0.0405618
-0.0812683
-0.0835957
0.0433226
0.00338375
-0.0126025
0.0100027
-0.0384614
0.0164037
-0.0574423
0.0212127
-0.0683374
0.0245024
-0.0738582
0.0268373
-0.0767861
0.0287434
-0.0788642
0.0305422
-0.0808896
0.0323761
-0.0831022
-0.0855023
0.0342827
0.00355459
-0.0161571
0.00946591
-0.0443727
0.014472
-0.0624484
0.0177631
-0.0716285
0.0197286
-0.0758237
0.0209823
-0.0780397
0.0219688
-0.0798506
0.0229105
-0.0818313
0.0238787
-0.0840704
-0.0865117
0.024888
0.00349092
-0.019648
0.00840091
-0.0492827
0.0119747
-0.0660223
0.013884
-0.0735378
0.014691
-0.0766307
0.0149764
-0.0783251
0.0150867
-0.0799609
0.0151652
-0.0819098
0.0152436
-0.0841488
0.0153266
-0.0865946
-0.000444598
0.000444598
-0.00133473
0.000890134
-0.00243989
0.00110516
-0.00363012
0.00119023
-0.004831
0.00120089
-0.00600365
0.00117265
-0.00713399
0.00113034
-0.0082265
0.00109251
-0.00930241
0.00107591
0.00110174
-0.0104041
-0.000410361
0.000854958
-0.00122829
0.00170807
-0.00223441
0.00211128
-0.00329746
0.00225327
-0.00433895
0.00224238
-0.00531347
0.00214716
-0.00619889
0.00201576
-0.00699249
0.00188611
-0.00770869
0.00179211
0.00178533
-0.00839229
-0.000349335
0.00120429
-0.00103943
0.00239816
-0.00186307
0.00293493
-0.00269065
0.00308085
-0.00343831
0.00299005
-0.00404969
0.00275854
-0.00448741
0.00245348
-0.0047342
0.0021329
-0.00479505
0.00185296
0.00166807
-0.00467779
-0.000276589
0.00148088
-0.000802377
0.00292395
-0.0013837
0.00351625
-0.00189309
0.00359024
-0.00224199
0.00333895
-0.00236301
0.00287955
-0.00219966
0.00229013
-0.00170443
0.00163767
-0.000854972
0.0010035
0.00056254
0.000250558
-0.000205579
0.00168646
-0.000549214
0.00326758
-0.000843921
0.00381095
-0.00096162
0.00370794
-0.000807782
0.00318511
-0.000304451
0.00237622
0.000619924
0.00136576
0.00203297
0.000224615
0.00399854
-0.000962059
-0.00201067
0.00657174
-0.000144095
0.00183056
-0.000294245
0.00341773
-0.000253508
0.00377022
0.000117545
0.00333688
0.000930044
0.00237261
0.00227654
0.00102972
0.00423962
-0.000597321
0.00689254
-0.0024283
0.010304
-0.00437352
-0.00641465
0.014708
-9.13326e-05
0.00192189
-2.20974e-05
0.0033485
0.000429033
0.00331909
0.00144299
0.00232292
0.00316247
0.00065314
0.00570228
-0.0015101
0.0091442
-0.00403924
0.0135328
-0.00681686
0.0188512
-0.00969202
-0.0130816
0.0255182
-3.72802e-05
0.00195917
0.000297916
0.0030133
0.00129453
0.00232247
0.00318236
0.000435095
0.00614767
-0.00231217
0.0103121
-0.00567451
0.0157155
-0.00944264
0.0223021
-0.0134035
0.0299437
-0.0173336
-0.022072
0.0389341
4.39493e-05
0.00191522
0.000741285
0.00231597
0.00247542
0.000588331
0.00553828
-0.00262777
0.0101216
-0.00689548
0.016277
-0.0118299
0.0239074
-0.0170731
0.0327493
-0.0222453
0.0426245
-0.0272088
-0.0324235
0.052976
0.000167095
0.00137622
0.00410194
0.00865798
0.0151335
0.0233603
0.0329731
0.0434949
0.0547142
0.0650402
-0.0110277
0.0006236
-0.0116401
0.000612332
-0.012224
0.000583952
-0.0127774
0.000553385
-0.0132996
0.00052216
-0.0137896
0.000489994
-0.0142461
0.000456559
-0.0146679
0.000421804
-0.0150538
0.000385834
-0.0154028
0.000349012
-0.0157148
0.000312013
-0.0159906
0.000275828
-0.0162324
0.000241767
-0.0164438
0.000211418
-0.0166303
0.000186495
-0.0167987
0.000168444
-0.0169568
0.000158101
-0.017113
0.000156146
-0.017276
0.000162992
0.000172143
-0.00889527
0.00112658
-0.00939915
0.00111622
-0.009888
0.0010728
-0.0103622
0.00102762
-0.0108211
0.000981032
-0.0112636
0.000932466
-0.0116878
0.000880743
-0.0120917
0.000825739
-0.0124734
0.000767527
-0.012831
0.00070656
-0.0131628
0.00064385
-0.013468
0.000581021
-0.0137466
0.000520344
-0.0139999
0.000464713
-0.0142308
0.000417474
-0.0144442
0.000381834
-0.0146461
0.000360017
-0.0148436
0.000353553
-0.0150445
0.000363907
0.000381315
-0.00497058
0.00141937
-0.00525885
0.00140449
-0.00555959
0.00137354
-0.00586902
0.00133706
-0.00618644
0.00129845
-0.00651413
0.00126016
-0.00684819
0.0012148
-0.00718664
0.00116419
-0.0075271
0.00110798
-0.00786688
0.00104635
-0.00820311
0.000980077
-0.00853286
0.000910771
-0.00885344
0.000840925
-0.00916272
0.000773997
-0.00945962
0.000714367
-0.00974461
0.000666827
-0.0100199
0.000635274
-0.0102887
0.000622364
-0.0105571
0.000632306
0.000661324
0.000339351
0.00133057
0.000298093
0.00144575
0.000240254
0.00143138
0.000164453
0.00141286
5.80162e-05
0.00140488
-7.56276e-05
0.0013938
-0.000240199
0.00137937
-0.000434346
0.00135834
-0.000656893
0.00133053
-0.000906091
0.00129554
-0.00117946
0.00125344
-0.00147387
0.00120518
-0.00178566
0.00115271
-0.00211072
0.00109905
-0.00244473
0.00104838
-0.00278388
0.00100598
-0.00312562
0.000977011
-0.00346824
0.000964989
-0.00381014
0.000974202
0.00100835
0.00688068
0.00102163
0.00710891
0.00121752
0.00729147
0.00124882
0.00745351
0.00125081
0.00757939
0.00127901
0.0076604
0.00131279
0.00769961
0.00134017
0.00769759
0.00136035
0.00765359
0.00137453
0.00756677
0.00138237
0.00743696
0.00138325
0.00726478
0.00137736
0.00705166
0.00136584
0.0068
0.00135071
0.0065134
0.00133498
0.00619637
0.00132301
0.00585364
0.00131974
0.00548927
0.00132936
0.00511018
0.0013533
0.00140106
0.0151539
0.000575716
0.0155028
0.000868582
0.015817
0.000934647
0.0161236
0.000944231
0.016403
0.000999638
0.0166459
0.00106988
0.0168546
0.00113146
0.0170291
0.00118587
0.017166
0.00123755
0.0172618
0.00128658
0.0173133
0.00133178
0.0173177
0.00137293
0.017273
0.00141057
0.0171778
0.00144589
0.0170322
0.00148057
0.0168375
0.00151772
0.0165967
0.00156056
0.0163112
0.00161485
0.0159868
0.00167775
0.00177341
0.0258528
0.000241059
0.0261412
0.000580202
0.0264512
0.000624605
0.0267584
0.000637093
0.0270633
0.000694704
0.0273549
0.000778247
0.0276364
0.000849983
0.0279049
0.000917339
0.0281542
0.000988345
0.0283783
0.00106247
0.0285721
0.00113791
0.0287306
0.00121442
0.0288492
0.00129206
0.0289235
0.00137159
0.0289508
0.00145322
0.0289287
0.0015398
0.0288581
0.00163121
0.0287359
0.00173703
0.0285679
0.0018458
0.00200933
0.0389728
0.000202387
0.0391132
0.00043973
0.039322
0.000415809
0.039576
0.000383124
0.039837
0.000433681
0.0401169
0.000498385
0.0404134
0.000553436
0.0407153
0.000615446
0.0410142
0.000689505
0.0413039
0.000772746
0.041579
0.000862801
0.0418339
0.000959531
0.0420637
0.0010622
0.0422639
0.00117145
0.0424317
0.00128536
0.0425633
0.00140823
0.0426606
0.00153397
0.042717
0.00168061
0.0427481
0.0018147
0.0020403
0.0528863
0.00029211
0.0530583
0.000267741
0.0534151
5.89902e-05
0.0537408
5.74326e-05
0.0540622
0.000112209
0.0544078
0.00015285
0.0547727
0.00018854
0.055139
0.00024913
0.0555015
0.000327036
0.0558568
0.000417386
0.0562021
0.000517536
0.0565343
0.0006273
0.0568517
0.000744829
0.0571516
0.000871486
0.0574348
0.00100226
0.0576975
0.00114546
0.0579464
0.00128508
0.0581726
0.00145442
0.0584004
0.00158687
0.00184039
0.0654516
-0.00011936
0.0661574
-0.000438019
0.0667624
-0.000546009
0.0673374
-0.000517521
0.0679153
-0.000465725
0.0684783
-0.000410103
0.0690116
-0.000344762
0.0695255
-0.000264789
0.0700249
-0.000172398
0.07051
-6.76604e-05
0.0709891
3.84178e-05
0.0714626
0.00015375
0.071931
0.000276427
0.0723938
0.00040874
0.0728547
0.000541287
0.0733114
0.000688777
0.0737737
0.000822781
0.0742341
0.00099406
0.0747151
0.0011059
0.0013372
0.0907174
0.000648273
-0.091485
0.0897993
0.000480119
0.0889242
0.00032902
0.08817
0.000236763
0.0875143
0.00018996
0.0869289
0.0001753
0.0863981
0.000185973
0.0859146
0.000218721
0.0854722
0.000270007
0.0850669
0.000337657
0.0846885
0.0004168
0.084334
0.00050826
0.0840033
0.000607188
0.0836939
0.00071806
0.083407
0.000828246
0.0831401
0.000955654
0.0828972
0.00106566
0.0826775
0.00121377
0.0824848
0.00129858
0.00147987
0.0995569
0.000932341
-0.099841
0.0991763
0.000860745
0.0987338
0.000771516
0.0982956
0.000674995
0.097881
0.000604479
0.0974879
0.000568439
0.0971135
0.000560322
0.0967584
0.000573917
0.0964226
0.00060571
0.0961059
0.000654405
0.0958067
0.000715961
0.0955242
0.000790775
0.0952584
0.000873027
0.0950084
0.000968041
0.0947747
0.00106192
0.0945573
0.00117313
0.0943567
0.00126626
0.0941766
0.00139378
0.0940123
0.00146288
0.00161381
0.10613
0.00122479
-0.106423
0.105899
0.00109213
0.10568
0.000989914
0.105466
0.00088966
0.10526
0.000810045
0.105066
0.000762446
0.104882
0.000744039
0.104708
0.000748524
0.104542
0.000771161
0.104386
0.000810392
0.10424
0.000862304
0.104103
0.000927836
0.103976
0.00100029
0.103858
0.00108586
0.10375
0.00116937
0.103653
0.00127039
0.103567
0.00135245
0.103493
0.00146766
0.103428
0.00152761
0.00166385
0.111614
0.00143602
-0.111825
0.111473
0.00123274
0.111368
0.00109553
0.11127
0.000987102
0.111179
0.000900963
0.111099
0.000842477
0.111031
0.000811983
0.110974
0.000805666
0.110927
0.000818284
0.11089
0.000848119
0.110861
0.000890479
0.110842
0.000947253
0.110832
0.00101022
0.11083
0.00108749
0.110838
0.00116126
0.110855
0.00125434
0.11088
0.00132647
0.110914
0.00143419
0.110955
0.00148611
0.00161481
0.11666
0.00152557
-0.116749
0.116596
0.00129711
0.116555
0.0011365
0.116524
0.00101787
0.116499
0.00092587
0.116482
0.000858912
0.116477
0.000817318
0.116483
0.000799834
0.1165
0.000801485
0.116527
0.000821114
0.116564
0.00085274
0.116612
0.000899673
0.116671
0.000951724
0.116738
0.00101966
0.116817
0.00108243
0.116905
0.00116695
0.117003
0.00122849
0.117108
0.00132865
0.117222
0.00137234
0.00149395
0.121727
0.00154257
-0.121744
0.121708
0.00131633
0.1217
0.00114465
0.121701
0.00101625
0.121709
0.000917896
0.121724
0.000844392
0.121747
0.000793937
0.12178
0.000766536
0.121824
0.000757555
0.121878
0.000766967
0.121944
0.000787611
0.122019
0.000824203
0.122106
0.000864769
0.122203
0.00092241
0.122312
0.000973603
0.122431
0.0010482
0.12256
0.00109896
0.122699
0.00118962
0.122846
0.00122544
0.00133711
0.126981
0.00153301
-0.126971
0.126983
0.00131462
0.126988
0.00113904
0.127001
0.0010037
0.127019
0.000899498
0.127043
0.000820579
0.127074
0.000763073
0.127113
0.000727197
0.127162
0.000708459
0.127221
0.000708007
0.127291
0.000718027
0.127371
0.000744194
0.127462
0.000773522
0.127564
0.000820309
0.127678
0.000860217
0.127802
0.000923764
0.127937
0.000964307
0.128083
0.00104357
0.128236
0.00107231
0.00117113
0.132342
0.00151043
-0.13232
0.132356
0.00130099
0.132369
0.00112633
0.132385
0.00098772
0.132405
0.000879288
0.132429
0.000795983
0.13246
0.000732813
0.132497
0.000689774
0.132543
0.000662414
0.132599
0.00065269
0.132664
0.000652788
0.132739
0.000668719
0.132825
0.000687494
0.132922
0.000723256
0.13303
0.000752634
0.133149
0.000804512
0.133278
0.000835728
0.133419
0.000902447
0.133566
0.000924955
0.00100922
0.137604
0.00147067
-0.137565
0.137633
0.00127218
0.137658
0.00110183
0.137682
0.000963189
0.137709
0.000852717
0.137738
0.000766413
0.137772
0.000698968
0.137812
0.000650114
0.137859
0.000615509
0.137914
0.000597463
0.137978
0.000588683
0.138052
0.000594956
0.138135
0.000604158
0.138229
0.000629223
0.138333
0.000649071
0.138448
0.000689321
0.138571
0.000712208
0.138708
0.000766139
0.138849
0.000783217
0.000852557
0.142556
0.00140101
-0.142486
0.142613
0.0012148
0.142664
0.00105107
0.142712
0.000915284
0.142759
0.000805347
0.142807
0.000718008
0.142858
0.000648047
0.142913
0.000595064
0.142974
0.000554954
0.143041
0.00053008
0.143116
0.000513909
0.143199
0.000511712
0.143291
0.000512684
0.143392
0.000528068
0.143501
0.000539644
0.143622
0.000569142
0.143749
0.000584807
0.143888
0.000626746
0.144032
0.000639164
0.000694523
0.147109
0.00128173
-0.146989
0.147215
0.00110888
0.147311
0.000954237
0.147402
0.000824482
0.147489
0.000718135
0.147575
0.000632417
0.147661
0.000562324
0.147748
0.000507547
0.147839
0.000464235
0.147934
0.000434769
0.148035
0.000413287
0.148142
0.000404629
0.148255
0.000399219
0.148377
0.000406815
0.148505
0.000411754
0.148641
0.000432352
0.148784
0.000442113
0.148937
0.000473974
0.149093
0.000482544
0.000526121
0.151415
0.00109417
-0.151227
0.151587
0.000937351
0.151745
0.000795414
0.151894
0.00067548
0.152036
0.000576229
0.152173
0.000495417
0.152307
0.000428242
0.15244
0.000374759
0.152573
0.000331179
0.152708
0.000300128
0.152845
0.000276028
0.152986
0.000263745
0.153131
0.000254335
0.153281
0.000256889
0.153435
0.000257232
0.153596
0.000271678
0.153761
0.000277106
0.153933
0.000301765
0.154108
0.000307387
0.000342382
0.155905
0.000837011
-0.155648
0.156142
0.000700494
0.156361
0.000575719
0.156567
0.00046962
0.156762
0.000380999
0.156949
0.000308519
0.15713
0.000247537
0.157306
0.000198783
0.157479
0.000158151
0.15765
0.000128836
0.157821
0.000105069
0.157993
9.23607e-05
0.158165
8.15599e-05
0.15834
8.21753e-05
0.158517
8.0127e-05
0.158697
9.15211e-05
0.15888
9.42834e-05
0.159067
0.00011497
0.159256
0.000118563
0.000148456
0.161148
0.000540184
-0.160852
0.161421
0.000427696
0.161673
0.000323644
0.161908
0.00023443
0.16213
0.000159068
0.162341
9.74874e-05
0.162544
4.52493e-05
0.162738
3.96763e-06
0.162928
-3.11085e-05
0.163113
-5.60195e-05
0.163295
-7.70188e-05
0.163475
-8.75497e-05
0.163654
-9.7576e-05
0.163832
-9.63869e-05
0.164011
-9.89855e-05
0.164191
-8.81714e-05
0.164372
-8.66709e-05
0.164554
-6.74322e-05
0.164738
-6.50657e-05
-3.76234e-05
0.167515
0.00026078
-0.167236
0.16777
0.000172935
0.168003
9.03963e-05
0.168218
1.89196e-05
0.16842
-4.24248e-05
0.16861
-9.23768e-05
0.16879
-0.00013485
0.168962
-0.000167726
0.169127
-0.000196245
0.169286
-0.000215506
0.169442
-0.00023262
0.169594
-0.000239852
0.169745
-0.000248035
0.169893
-0.000245215
0.170042
-0.000247401
0.17019
-0.000236181
0.170338
-0.000235145
0.170487
-0.000216454
0.170637
-0.000214795
-0.000188884
0.174808
5.40882e-05
-0.174601
0.174993
-1.18591e-05
0.175158
-7.47571e-05
0.175307
-0.000129972
0.175443
-0.000178288
0.175567
-0.000217195
0.175683
-0.000250595
0.175791
-0.000275706
0.175893
-0.000297949
0.175989
-0.000312038
0.176082
-0.000325354
0.176172
-0.000329707
0.17626
-0.00033602
0.176347
-0.000332046
0.176433
-0.000333688
0.17652
-0.000322651
0.176606
-0.000321869
0.176694
-0.000304479
0.176783
-0.000303303
-0.00027979
0.182227
-5.78804e-05
-0.182115
0.182321
-0.000105812
0.182397
-0.000151486
0.18246
-0.000192203
0.18251
-0.000228416
0.18255
-0.00025738
0.182582
-0.000282485
0.182607
-0.000300862
0.182626
-0.000317468
0.182642
-0.000327394
0.182654
-0.000337363
0.182664
-0.000339841
0.182673
-0.000344588
0.182681
-0.000340583
0.182689
-0.000341847
0.182699
-0.000332293
0.182709
-0.000331786
0.182722
-0.000317211
0.182735
-0.000316435
-0.000297039
0.188758
-8.70842e-05
-0.188729
0.188772
-0.000119403
0.18877
-0.000149738
0.188754
-0.000176545
0.188726
-0.000200737
0.188689
-0.000220058
0.188644
-0.000236953
0.188592
-0.000249083
0.188535
-0.000260216
0.188474
-0.000266595
0.18841
-0.000273306
0.188344
-0.000274634
0.188278
-0.000277858
0.188212
-0.000274737
0.188146
-0.000275627
0.188082
-0.00026868
0.188019
-0.000268396
0.187959
-0.000257972
0.187901
-0.000257499
-0.000243754
0.193585
-5.67234e-05
-0.193616
0.193541
-7.53016e-05
0.193482
-9.09183e-05
0.19341
-0.000104066
0.193325
-0.000115994
0.193231
-0.00012558
0.193128
-0.000134027
0.193019
-0.000140046
0.192904
-0.000145609
0.192786
-0.000148744
0.192665
-0.000152086
0.192543
-0.000152677
0.19242
-0.000154245
0.192297
-0.000152595
0.192175
-0.000152969
0.192055
-0.00014941
0.191936
-0.000149161
0.191822
-0.000143882
0.191708
-0.000143492
-0.000136452
0.196158
-0.196214
0.196082
0.195991
0.195887
0.195771
0.195646
0.195512
0.195372
0.195226
0.195077
0.194925
0.194773
0.194618
0.194466
0.194313
0.194163
0.194014
0.19387
0.193727
0.0903053
0.0142758
-0.0892545
0.0913701
0.0238232
0.0924672
0.0331856
0.0935538
0.0422361
0.0946573
0.0507119
0.0956722
0.0586048
0.0963753
0.0656777
0.0968722
0.0714053
0.0944865
0.0772545
0.0761308
0.0932571
0.0133406
-0.0923219
0.0942535
0.0228268
0.0953409
0.0320982
0.0964921
0.0410848
0.0976483
0.0495558
0.0989571
0.0572959
0.0998505
0.0647843
0.101245
0.0700113
0.101227
0.0772719
0.077517
0.0964621
0.0125111
-0.0956326
0.097413
0.021876
0.0984667
0.0310446
0.0996837
0.0398678
0.100861
0.0483782
0.102357
0.0558004
0.103546
0.0635955
0.105105
0.0684522
0.106468
0.0759082
0.0775628
0.0997733
0.0117568
-0.099019
0.100723
0.0209261
0.101787
0.0299806
0.10309
0.0385651
0.104377
0.0470907
0.105952
0.054226
0.107472
0.0620749
0.108971
0.0669538
0.110837
0.0740416
0.0765748
0.103059
0.0110441
-0.102347
0.10404
0.0199457
0.105185
0.0288357
0.106594
0.0371559
0.108088
0.0455963
0.109735
0.052579
0.111534
0.0602764
0.113128
0.06536
0.115148
0.0720215
0.0749733
0.106197
0.0103399
-0.105492
0.107226
0.0189158
0.108506
0.0275556
0.110052
0.0356102
0.111803
0.0438456
0.113629
0.0507533
0.115697
0.0582076
0.117599
0.0634581
0.119777
0.0698434
0.0730067
0.109074
0.00961633
-0.108351
0.110171
0.0178191
0.11161
0.0261163
0.113334
0.0338867
0.115358
0.0418211
0.117485
0.0486266
0.119872
0.0558211
0.122189
0.0611404
0.124665
0.0673679
0.0707003
0.111633
0.00885616
-0.110873
0.112812
0.0166396
0.114411
0.0245172
0.116343
0.0319548
0.118644
0.0395206
0.121129
0.0461413
0.123886
0.0530645
0.126656
0.0583695
0.129578
0.0644459
0.067959
0.113906
0.00805157
-0.113101
0.115174
0.0153715
0.116916
0.0227747
0.119053
0.0298179
0.121612
0.0369619
0.124441
0.0433119
0.12759
0.0499158
0.130823
0.055136
0.134281
0.0609883
0.0646755
0.116051
0.0072036
-0.115203
0.117397
0.0140263
0.119252
0.0209194
0.121553
0.0275167
0.124325
0.0341896
0.127438
0.0401988
0.130949
0.0464053
0.134617
0.0514684
0.138607
0.0569978
0.0607965
0.118357
0.00632559
-0.117479
0.119752
0.0126304
0.121679
0.018993
0.124083
0.0251123
0.127001
0.0312712
0.130313
0.0368874
0.134098
0.0426201
0.138119
0.0474474
0.142549
0.0525675
0.0563564
0.121185
0.00542958
-0.120289
0.122594
0.0112215
0.124547
0.01704
0.126996
0.0226626
0.12999
0.0282782
0.133415
0.0334621
0.137361
0.038674
0.141623
0.0431854
0.146346
0.0478444
0.0514752
0.124845
0.00456549
-0.123981
0.126236
0.00983005
0.128185
0.0150915
0.130649
0.0201987
0.133671
0.0252554
0.13716
0.029973
0.141184
0.0346504
0.145594
0.0387759
0.150478
0.0429594
0.0463062
0.129421
0.00376903
-0.128625
0.130779
0.00847246
0.132719
0.0131511
0.135209
0.0177089
0.138271
0.0221932
0.141838
0.0264059
0.145939
0.0305496
0.150477
0.0342376
0.155488
0.0379489
0.0409424
0.134638
0.00305817
-0.133927
0.135971
0.00713919
0.137932
0.0111902
0.140498
0.0151424
0.143667
0.0190251
0.147389
0.0226838
0.151659
0.0262794
0.156405
0.0294918
0.161634
0.0327196
0.0353407
0.139905
0.00241768
-0.139265
0.141247
0.00579801
0.143278
0.00915862
0.145986
0.0124345
0.149349
0.0156625
0.153325
0.0187074
0.157896
0.0217083
0.162984
0.024404
0.168599
0.0271043
0.0293388
0.14459
0.00180633
-0.143979
0.145977
0.0044115
0.148123
0.00701226
0.151016
0.00954192
0.154631
0.0120467
0.158926
0.0144124
0.163886
0.0167488
0.169421
0.0188693
0.17555
0.0209753
0.0227738
0.14832
0.00119336
-0.147707
0.149765
0.00296568
0.152034
0.00474331
0.155108
0.00646825
0.158972
0.00818272
0.163579
0.00980582
0.16892
0.0114078
0.174908
0.0128807
0.181558
0.014326
0.0156026
0.150992
0.000587784
-0.150386
0.152473
0.00148467
0.154827
0.002389
0.158031
0.00326445
0.162077
0.00413646
0.16692
0.00496363
0.172549
0.00577863
0.178894
0.00653569
0.185949
0.00727104
0.00793574
0.152455
-0.151867
0.15394
0.156329
0.159593
0.16373
0.168693
0.174472
0.181008
0.188279
0.0424216
0.0516472
-0.0455477
-0.0485211
0.0363803
0.0502781
-0.0442369
0.0307551
0.0493816
-0.0437564
0.0254505
0.0490457
-0.0437412
0.0203491
0.0491825
-0.0440811
0.0153823
0.0497734
-0.0448066
0.0105322
0.0506783
-0.0458282
0.00591515
0.0507729
-0.0461559
0.00200873
0.0459896
-0.0420832
0.0264392
-0.0244305
0.040662
0.057658
-0.0466728
0.0347904
0.0561498
0.0292131
0.0549589
0.0239683
0.0542905
0.0189803
0.0541704
0.0141678
0.0545859
0.00951468
0.0553315
0.00517081
0.0551168
0.00164426
0.0495161
0.0280835
0.0379897
0.06333
-0.0436617
0.0324063
0.0617332
0.0270315
0.0603337
0.0219486
0.0593734
0.0171398
0.0589792
0.0125468
0.059179
0.00817138
0.0597069
0.00420436
0.0590838
0.00117796
0.0525425
0.0292614
0.0342311
0.0686227
-0.0395237
0.0290633
0.066901
0.0240562
0.0653408
0.0192879
0.0641416
0.0147754
0.0634917
0.0104955
0.0634589
0.00649104
0.0637113
0.00301504
0.0625598
0.000609759
0.0549478
0.0298712
0.02946
0.0734558
-0.0342932
0.024785
0.071576
0.0202663
0.0698594
0.0159499
0.068458
0.01186
0.0675816
0.00800297
0.067316
0.00446656
0.0672478
0.00159675
0.0654296
-6.66601e-05
0.0566112
0.0298045
0.0237039
0.0776969
-0.0279449
0.0196313
0.0756485
0.0157106
0.0737801
0.0119599
0.0722088
0.00840274
0.0711388
0.00507795
0.0706408
0.00212415
0.0702016
-0.00011045
0.0676642
-0.00072889
0.0572297
0.0290756
0.0170803
0.0812175
-0.020601
0.0137097
0.0790192
0.0104753
0.0770145
0.00738357
0.0753005
0.00445357
0.0740688
0.00176844
0.0733259
-0.000455178
0.0724252
-0.00168637
0.0688954
-0.00141881
0.0569621
0.0276568
0.0097076
0.0839131
-0.0124032
0.00712611
0.0816007
0.00465838
0.0794822
0.00230827
0.0776506
0.000100655
0.0762764
-0.00186087
0.0752874
-0.00323394
0.0737982
-0.00346992
0.0691314
-0.00209791
0.0555901
0.0255589
0.00173002
0.0857572
-0.00357411
5.48428e-06
0.0833252
-0.0016278
0.0811155
-0.00319611
0.0792189
-0.00463897
0.0777193
-0.00576564
0.0764141
-0.00618068
0.0742133
-0.00526572
0.0682164
-0.00271328
0.0530376
0.0228456
-0.00663977
0.00580235
-0.00746336
-0.00825768
-0.00899972
-0.00960557
-0.00982222
-0.00914678
-0.00695259
-0.0031976
0.0321389
0.00304239
-0.0351813
0.0289753
0.00316356
0.0256713
0.00330406
0.0222061
0.0034652
0.0185516
0.00365447
0.0146745
0.00387716
0.0105566
0.00411789
0.00628589
0.00427067
0.00231706
0.00396884
0.00231706
0.0327298
0.00621692
-0.0359044
0.0294496
0.00644381
0.0260439
0.00670969
0.022492
0.00701714
0.0187651
0.00738139
0.0148285
0.00781372
0.010661
0.00828544
0.00634689
0.00858474
0.00234672
0.007969
0.00466378
0.0338505
0.00964291
-0.0372765
0.0303478
0.00994644
0.0267483
0.0103092
0.0230303
0.0107351
0.0191642
0.0112475
0.0151136
0.0118644
0.0108539
0.0125451
0.00646359
0.0129751
0.00239382
0.0120388
0.0070576
0.0353829
0.0134129
-0.0391529
0.0315746
0.0137547
0.0277074
0.0141764
0.0237599
0.0146827
0.0197015
0.0153059
0.0154937
0.0160721
0.0111076
0.0169312
0.00661356
0.0174691
0.00245459
0.0161977
0.00951219
0.0371651
0.0175845
-0.0413368
0.0329967
0.0179232
0.0288126
0.0183605
0.0245933
0.018902
0.0203079
0.0195913
0.0159153
0.0204647
0.0113821
0.0214645
0.00677078
0.0220804
0.00251611
0.0204524
0.0120283
0.0390133
0.0221749
-0.0436037
0.0344608
0.0224757
0.0299359
0.0228853
0.0254252
0.0234127
0.0208982
0.0241183
0.0163114
0.0250515
0.0116273
0.0261486
0.00690181
0.0268058
0.00256279
0.0247914
0.0145911
0.0407153
0.0271883
-0.0457287
0.0357786
0.0274124
0.0309237
0.0277402
0.0261379
0.0281985
0.0213831
0.0288731
0.0166133
0.0298213
0.0117913
0.0309706
0.00697148
0.0316256
0.00257811
0.0291848
0.0171692
0.0421507
0.0326086
-0.0475709
0.0368198
0.0327433
0.0316481
0.0329119
0.0266132
0.0332335
0.0216609
0.0338254
0.0167408
0.0347413
0.0118158
0.0358956
0.0069419
0.0364995
0.00254481
0.0335819
0.019714
0.0429111
0.0385399
-0.0488424
0.0372684
0.0383859
0.0319152
0.0382651
0.0267212
0.0384275
0.0216315
0.0389151
0.0166153
0.0397576
0.0116421
0.0408688
0.00677491
0.0413667
0.00244603
0.0379108
0.0221601
0.0430623
-0.05007
0.0372113
0.0317201
0.0264064
0.0212404
0.0161914
0.011232
0.00644284
0.00227044
0.0387634
-0.000101487
0.0388641
-0.000100717
0.0389616
-9.75036e-05
0.0390518
-9.01187e-05
0.039131
-7.92226e-05
0.0391959
-6.49458e-05
0.0392428
-4.68625e-05
0.039267
-2.42091e-05
0.039263
3.98197e-06
0.0392292
3.378e-05
0.0391587
7.05096e-05
0.0390444
0.000114366
0.038878
0.00016635
0.0386502
0.000227828
0.0383497
0.000300512
0.0379632
0.000386497
0.0374747
0.000488453
0.0368653
0.000609474
0.0361113
0.00075394
0.000930019
0.0396227
-0.000204217
0.0397229
-0.000200903
0.0398184
-0.000193005
0.039906
-0.000177731
0.0399826
-0.000155791
0.0400447
-0.000127017
0.0400883
-9.04971e-05
0.0401088
-4.47165e-05
0.0401014
1.13775e-05
0.0400633
7.19474e-05
0.0399876
0.000146212
0.0398671
0.000234831
0.0396936
0.000339837
0.0394575
0.000463967
0.0391473
0.000610664
0.0387497
0.000784102
0.0382485
0.000989673
0.0376246
0.00123342
0.0368543
0.00152418
0.00187997
0.0413127
-0.000298688
0.0414052
-0.000293388
0.0414933
-0.000281182
0.0415735
-0.000257892
0.0416422
-0.000224508
0.0416959
-0.000180722
0.0417305
-0.000125084
0.0417409
-5.51231e-05
0.041724
2.83493e-05
0.0416745
0.000121396
0.041586
0.00023472
0.041451
0.000369811
0.0412611
0.000529774
0.0410063
0.000718748
0.040675
0.000941934
0.0402536
0.00120556
0.0397254
0.00151784
0.0390713
0.00188754
0.0382678
0.00232764
0.00287135
0.0437729
-0.000374917
0.043847
-0.000367503
0.043917
-0.000351176
0.043979
-0.000319864
0.0440291
-0.00027461
0.0440634
-0.000215084
0.0440777
-0.000139342
0.0440666
-4.4031e-05
0.0440292
6.57082e-05
0.0439568
0.000193818
0.0438431
0.000348404
0.0436806
0.000532291
0.0434606
0.000749797
0.0431728
0.00100655
0.0428052
0.00130953
0.0423437
0.00166707
0.0417713
0.00209024
0.0410681
0.00259076
0.0402121
0.00318367
0.00393056
0.0469214
-0.000415959
0.04696
-0.000406112
0.0469942
-0.000385402
0.0470202
-0.000345897
0.047034
-0.000288406
0.0470314
-0.000212514
0.047008
-0.000115896
0.0469559
8.02849e-06
0.0468799
0.0001417
0.0467659
0.000307829
0.0466082
0.000506187
0.046399
0.000741454
0.0461294
0.00101937
0.0457887
0.00134728
0.0453645
0.00173375
0.0448419
0.00218966
0.0442039
0.00272826
0.0434283
0.00336633
0.0424971
0.00411486
0.00509085
0.0506628
-0.000397436
0.0506412
-0.000384453
0.050614
-0.000358192
0.0505778
-0.000309751
0.0505287
-0.000239326
0.0504622
-0.000145953
0.0503707
-2.44569e-05
0.0502633
0.000115494
0.0501193
0.000285618
0.0499366
0.000490578
0.0497083
0.000734533
0.0494259
0.00102376
0.0490806
0.00136474
0.0486605
0.00176731
0.0481536
0.00224073
0.0475429
0.00280035
0.0468125
0.00345859
0.0459352
0.00424366
0.0449028
0.00514726
0.00638994
0.0548995
-0.000286383
0.054784
-0.000268995
0.054661
-0.000235192
0.0545285
-0.000177181
0.0543819
-9.27817e-05
0.0542151
2.08306e-05
0.0540346
0.000156131
0.0538244
0.000325612
0.0535798
0.000530232
0.0532949
0.000775547
0.0529627
0.00106664
0.0525743
0.0014122
0.0521209
0.00181817
0.0515892
0.00229901
0.0509688
0.0028611
0.0502388
0.00353033
0.0493881
0.00430931
0.0483729
0.00525886
0.0471951
0.00632508
0.00785635
0.0595427
-3.81588e-05
0.0592893
-1.55892e-05
0.0590259
2.82631e-05
0.0587528
9.58688e-05
0.0584685
0.000191595
0.0581706
0.000318674
0.057848
0.000478734
0.0574968
0.000676816
0.0571113
0.000915729
0.0566842
0.0012027
0.0562089
0.00154188
0.0556749
0.00194628
0.0550748
0.00241825
0.0543915
0.00298226
0.0536196
0.00363307
0.0527283
0.00442155
0.0517243
0.00531337
0.0505399
0.0064433
0.0492253
0.00763965
0.00951069
0.0645207
0.000389587
0.064077
0.000428136
0.063624
0.000481216
0.0631643
0.000555592
0.0626952
0.000660656
0.0622102
0.000803697
0.0617024
0.000986589
0.0611658
0.00121334
0.0605957
0.00148585
0.0599837
0.00181473
0.0593244
0.00220113
0.0586046
0.00266611
0.057821
0.00320187
0.0569482
0.003855
0.0559937
0.00458765
0.0548983
0.00551689
0.0537086
0.00650306
0.0522733
0.00787866
0.0507883
0.00912464
0.0114566
0.0698074
0.00111667
0.0691016
0.00113391
0.0684022
0.00118065
0.067704
0.00125384
0.0669995
0.00136513
0.0662796
0.00152359
0.0655383
0.00172793
0.0647699
0.00198172
0.0639712
0.00228452
0.0631334
0.00265253
0.0622533
0.00308123
0.0613156
0.00360382
0.0603239
0.00419352
0.0592479
0.00493104
0.0581167
0.00571885
0.0568512
0.00678243
0.055572
0.00778225
0.053997
0.00945368
0.0525481
0.0105735
0.0139347
0.0696422
0.00115388
0.0696227
0.00115333
0.0696168
0.0011866
0.0696235
0.00124709
0.0696358
0.00135284
0.0696474
0.00151198
0.0696596
0.00171577
0.0696745
0.00196681
0.0696974
0.00226162
0.0697282
0.00262174
0.0697761
0.00303329
0.069839
0.00354091
0.0699398
0.00409275
0.0700674
0.00480346