/*--------------------------------*- C++ -*----------------------------------*\
| =========                 |                                                 |
| \\      /  F ield         | OpenFOAM: The Open Source CFD Toolbox           |
|  \\    /   O peration     | Version:  4.1                                   |
|   \\  /    A nd           | Web:      www.OpenFOAM.org                      |
|    \\/     M anipulation  |                                                 |
\*---------------------------------------------------------------------------*/
FoamFile
{
    version     2.0;
    format      ascii;
    class       volVectorField;
    location    "13.1";
    object      U;
}
// * * * * * * * * * * * * * * * * * * * * * * * * * * * * * * * * * * * * * //

dimensions      [0 1 -1 0 0 0 0];

internalField   nonuniform List<vector> 
2000
(
(-0.0242448 0.0217869 3.1649e-21)
(0.00813991 0.0190075 0)
(0.108338 0.00484898 2.88444e-22)
(0.260561 -0.0109629 -1.03574e-21)
(0.448055 -0.0222947 2.04286e-21)
(0.650499 -0.0271633 5.96696e-21)
(0.849975 -0.025348 -1.90033e-21)
(1.02867 -0.0212583 0)
(1.1987 -0.00986342 2.95298e-21)
(1.30378 -0.00344154 0)
(-0.017343 0.0151164 -1.45078e-21)
(0.0506877 0.000883683 3.07796e-22)
(0.203956 -0.0159215 -3.63695e-21)
(0.414034 -0.0276986 -1.08761e-21)
(0.649139 -0.030698 -7.22806e-22)
(0.878714 -0.025958 -2.26033e-21)
(1.08197 -0.0163856 1.4087e-21)
(1.24933 -0.00655209 2.4905e-21)
(1.38515 0.005769 -2.95283e-21)
(1.46682 0.00625737 -6.92028e-21)
(-0.00377502 0.00677196 2.8025e-21)
(0.114314 -0.0181867 -2.62502e-21)
(0.331759 -0.0327465 1.92652e-21)
(0.598173 -0.0349659 -1.18883e-21)
(0.863814 -0.0266362 -3.079e-22)
(1.09441 -0.0128543 -1.17067e-21)
(1.27641 0.00149938 -1.89696e-21)
(1.41119 0.0128597 -2.49044e-21)
(1.50871 0.0216835 -3.20965e-21)
(1.5775 0.0223032 3.72107e-21)
(0.0185978 -0.00267071 -6.13798e-22)
(0.201932 -0.0350466 -3.81991e-21)
(0.488054 -0.0406561 0)
(0.796162 -0.0292269 4.88947e-22)
(1.06569 -0.0102344 -1.66338e-21)
(1.27197 0.00868715 0)
(1.41726 0.0233134 0)
(1.51594 0.0320958 0)
(1.58685 0.037464 3.20978e-21)
(1.63562 0.0355966 -8.12754e-21)
(0.0516745 -0.0119589 1.25489e-20)
(0.313449 -0.0452311 -9.808e-23)
(0.661527 -0.0354728 3.56292e-21)
(0.986189 -0.0101392 9.91337e-22)
(1.23392 0.015321 9.5381e-22)
(1.40174 0.0343978 -1.02059e-22)
(1.50955 0.0457533 0)
(1.58117 0.0508386 -1.62045e-21)
(1.63459 0.0523034 1.08422e-20)
(1.6807 0.0484792 -1.50789e-20)
(0.0965384 -0.0191798 -2.18763e-20)
(0.444118 -0.0440518 1.47804e-21)
(0.835564 -0.0155995 -6.916e-21)
(1.15028 0.0198998 5.3234e-21)
(1.36068 0.0464475 -1.91106e-21)
(1.48872 0.0618971 1.00075e-21)
(1.56693 0.0685533 0)
(1.62119 0.0696323 1.62056e-21)
(1.66754 0.0677666 -2.14136e-21)
(1.71233 0.0632691 -1.26616e-20)
(0.152934 -0.0219356 0)
(0.584417 -0.0281773 0)
(0.994236 0.0178001 -3.91101e-21)
(1.27972 0.0577677 3.64088e-21)
(1.44845 0.0809024 -3.26584e-22)
(1.54263 0.0906215 3.06616e-22)
(1.60026 0.0920848 -3.91512e-21)
(1.64519 0.0893075 3.70068e-21)
(1.68861 0.0846293 6.52079e-21)
(1.73438 0.0791955 -3.10927e-21)
(0.218711 -0.0178129 5.42731e-21)
(0.72219 0.00316288 0)
(1.12705 0.0620928 -1.51846e-21)
(1.37357 0.100914 5.58342e-21)
(1.50348 0.117518 -1.7907e-21)
(1.57173 0.12045 0)
(1.61645 0.116666 0)
(1.65689 0.110157 0)
(1.70005 0.102921 8.22951e-21)
(1.74694 0.0964943 -7.82256e-21)
(0.289796 -0.00502918 -2.92828e-21)
(0.846126 0.0482673 -3.13539e-22)
(1.22935 0.114315 -2.58906e-21)
(1.43474 0.147417 4.32951e-22)
(1.53189 0.155521 4.84381e-22)
(1.58176 0.151244 -4.86872e-22)
(1.61903 0.14228 0)
(1.65787 0.132148 1.1977e-21)
(1.70153 0.122552 6.57923e-21)
(1.74935 0.114472 -4.95161e-21)
(0.360801 0.0171217 0)
(0.948228 0.103949 -2.0271e-21)
(1.30032 0.171569 0)
(1.46717 0.195731 -4.45228e-22)
(1.53852 0.194236 -3.98719e-22)
(1.57614 0.182661 5.53608e-22)
(1.60959 0.1686 0)
(1.64827 0.154878 -1.19781e-21)
(1.69274 0.142891 -1.36964e-21)
(1.74141 0.132576 -1.73833e-21)
(-0.00446439 0.00434379 0)
(-0.0184108 0.00833856 6.02283e-22)
(-0.0385448 0.00975721 0)
(-0.0579983 0.00989515 7.43642e-22)
(-0.0751995 0.00938508 2.23991e-22)
(-0.0898909 0.00859946 -4.25232e-22)
(-0.102178 0.00778512 4.00461e-22)
(-0.112399 0.00711432 -3.72597e-22)
(-0.121066 0.00672827 -2.29867e-24)
(-0.12901 0.00676668 -3.32093e-22)
(-0.00546983 0.0126374 1.9589e-21)
(-0.0196496 0.0242816 -1.20836e-21)
(-0.0386807 0.0284212 1.03752e-21)
(-0.0563514 0.0287643 -4.92409e-22)
(-0.0713144 0.0271576 -2.23134e-21)
(-0.0833685 0.0246945 8.4029e-22)
(-0.092636 0.0221072 0)
(-0.0994307 0.0199295 3.71351e-22)
(-0.104156 0.0186079 3.50794e-22)
(-0.107877 0.0185949 0)
(-0.00738514 0.0198195 -1.30706e-21)
(-0.02205 0.0381554 0)
(-0.0390157 0.0446343 -3.05037e-21)
(-0.0533123 0.0449643 3.73173e-21)
(-0.0640023 0.0420555 -8.54923e-22)
(-0.071018 0.0376347 0)
(-0.0745307 0.0328722 0)
(-0.0748653 0.0286842 0)
(-0.0721968 0.0259049 -2.83801e-21)
(-0.0674209 0.0254667 2.69725e-21)
(-0.0100175 0.025414 0)
(-0.0254118 0.0489619 2.04419e-21)
(-0.0395237 0.0570955 -3.77627e-21)
(-0.0490295 0.0570432 1.75266e-21)
(-0.0535796 0.0525565 -1.65563e-21)
(-0.0533344 0.0458417 4.71081e-21)
(-0.0485549 0.0383756 6.6994e-23)
(-0.0396944 0.0313725 -2.8743e-21)
(-0.0268524 0.0262539 -2.94384e-21)
(-0.00893187 0.0256196 4.27801e-21)
(-0.0131462 0.0292641 -2.15853e-21)
(-0.0293558 0.0561174 3.58546e-21)
(-0.0397871 0.0649074 -1.09802e-22)
(-0.0429581 0.0639484 5.74359e-23)
(-0.0392361 0.0576068 -1.64721e-21)
(-0.0291058 0.0483973 4.42408e-21)
(-0.0129856 0.0379157 0)
(0.00856391 0.027474 1.46087e-21)
(0.0357581 0.019104 -1.50045e-21)
(0.0704811 0.0173884 5.83949e-21)
(-0.0165556 0.0314598 -1.67405e-22)
(-0.0332338 0.0593985 -3.30911e-21)
(-0.0386677 0.0675383 -1.61821e-21)
(-0.0332242 0.0649743 -1.25666e-21)
(-0.0180121 0.0565205 -1.50104e-21)
(0.00612168 0.0449136 -1.46823e-21)
(0.0385155 0.0317603 0)
(0.0781969 0.0181915 -1.46079e-21)
(0.12478 0.0060172 -5.03402e-21)
(0.186153 0.00241056 1.14807e-21)
(-0.0200234 0.0322069 2.46294e-23)
(-0.0359882 0.0587843 -1.27784e-21)
(-0.0340094 0.0647533 0)
(-0.0161518 0.0596992 3.09001e-21)
(0.0157662 0.0488614 -2.58782e-21)
(0.0604533 0.0352296 0)
(0.11676 0.0205222 0)
(0.182899 0.00575911 0)
(0.254634 -0.00917222 3.11289e-21)
(0.355606 -0.013219 6.24292e-21)
(-0.0232628 0.0316755 9.70234e-22)
(-0.0360016 0.0543733 -9.08847e-22)
(-0.0223335 0.0565406 -1.84286e-21)
(0.0139846 0.048091 3.71063e-22)
(0.0704205 0.0347498 -2.34041e-21)
(0.14466 0.0197808 -2.53478e-21)
(0.234096 0.00516559 -2.73075e-21)
(0.335471 -0.0075425 -2.95017e-21)
(0.436727 -0.0222585 -3.11253e-21)
(0.585561 -0.0224481 3.74817e-21)
(-0.0257205 0.0298639 6.00746e-22)
(-0.0309605 0.0462288 9.49727e-22)
(0.00119474 0.0431799 3.53192e-21)
(0.0648222 0.0309307 2.09296e-21)
(0.15591 0.0156684 3.11362e-22)
(0.269506 0.000883002 2.85199e-21)
(0.399572 -0.0113328 -2.38466e-21)
(0.539023 -0.0191593 2.94981e-21)
(0.671558 -0.0289903 -3.0974e-21)
(0.853363 -0.021035 6.94437e-21)
(-0.0264713 0.0266451 -1.04785e-22)
(-0.0175895 0.0343797 0)
(0.0425902 0.0254467 -1.1979e-21)
(0.144744 0.0101424 2.95852e-23)
(0.280908 -0.00502099 4.5273e-22)
(0.440321 -0.0167273 -2.57414e-21)
(0.611413 -0.0232177 7.24064e-21)
(0.779974 -0.025093 0)
(0.941485 -0.0247459 3.09699e-21)
(1.11166 -0.0098166 0)
(-0.137085 0.00714536 0)
(-0.145824 0.00703631 3.06838e-22)
(-0.154304 0.00675246 -6.08463e-22)
(-0.162433 0.00644183 2.64346e-22)
(-0.170244 0.00612226 0)
(-0.177723 0.005792 -2.71785e-22)
(-0.184848 0.00544839 2.73132e-22)
(-0.191594 0.00509083 0)
(-0.19794 0.0047209 0)
(-0.203863 0.0043431 -2.81072e-23)
(-0.20935 0.00396522 0)
(-0.214398 0.00359829 0)
(-0.219019 0.00325644 0)
(-0.223248 0.00295632 0)
(-0.227132 0.00271515 2.89178e-23)
(-0.230732 0.00254698 -2.90676e-23)
(-0.234173 0.00246013 0)
(-0.237769 0.00246042 5.17173e-24)
(-0.241742 0.00254302 -5.19893e-24)
(-0.244856 0.00264033 0)
(-0.112993 0.0198207 0)
(-0.120236 0.019548 -7.78961e-23)
(-0.127198 0.0188491 0)
(-0.133887 0.0180888 -1.13592e-21)
(-0.140451 0.0172958 1.10528e-21)
(-0.146885 0.0164692 -7.07317e-23)
(-0.153156 0.0155949 5.22392e-22)
(-0.159236 0.0146721 -1.08455e-21)
(-0.165098 0.0137033 9.01302e-22)
(-0.170715 0.0126986 -4.96292e-22)
(-0.176059 0.0116777 -3.97079e-22)
(-0.181112 0.0106698 7.10265e-22)
(-0.185863 0.00971391 -3.61255e-22)
(-0.190321 0.00885752 -1.77174e-22)
(-0.194503 0.00815261 1.39639e-22)
(-0.198435 0.00764556 -2.70953e-23)
(-0.202197 0.0073668 -2.11191e-23)
(-0.206074 0.00733528 -2.12703e-23)
(-0.210365 0.00754744 2.13733e-23)
(-0.213884 0.00783973 -1.51316e-24)
(-0.0672068 0.0280818 7.88267e-23)
(-0.071809 0.0276018 7.80322e-23)
(-0.0758785 0.0268582 7.85446e-23)
(-0.079775 0.0260657 0)
(-0.0838413 0.0252186 1.30866e-21)
(-0.0880923 0.0243383 -1.02116e-21)
(-0.0924943 0.0233458 0)
(-0.0970082 0.022261 1.31425e-22)
(-0.101613 0.0210831 6.08928e-23)
(-0.10628 0.0198203 -7.71206e-22)
(-0.110976 0.0184938 7.51537e-23)
(-0.115669 0.0171392 9.17172e-22)
(-0.120323 0.0158086 4.5173e-23)
(-0.124912 0.0145701 3.79541e-23)
(-0.129411 0.0135049 3.43175e-23)
(-0.133789 0.0126955 -7.07753e-23)
(-0.138048 0.0122054 6.86599e-23)
(-0.142392 0.0120784 7.29789e-23)
(-0.147208 0.0123509 1.2989e-23)
(-0.151454 0.0128631 -1.64731e-24)
(-0.00164727 0.0288827 2.46471e-21)
(-0.00359548 0.0291069 5.9794e-24)
(-0.00379119 0.0288057 -1.16745e-22)
(-0.00404917 0.0283217 -2.53559e-21)
(-0.00467997 0.0278754 -2.32743e-22)
(-0.00581352 0.0273771 -7.2883e-23)
(-0.00743162 0.0267618 2.08408e-21)
(-0.00940998 0.0260323 -1.24463e-21)
(-0.011776 0.0251741 -1.06336e-21)
(-0.0145249 0.0241844 9.96798e-22)
(-0.0176419 0.0230725 -7.64564e-23)
(-0.0211037 0.0218656 -1.01561e-21)
(-0.0248785 0.0206103 -4.47973e-23)
(-0.0289274 0.0193745 -3.88323e-22)
(-0.0332036 0.018248 2.69851e-22)
(-0.0376422 0.0173351 2.08164e-22)
(-0.0421642 0.0167314 -1.82245e-22)
(-0.0468322 0.0165079 0)
(-0.052067 0.0167502 -2.76265e-23)
(-0.0572739 0.017418 -1.59597e-24)
(0.085689 0.0221048 -5.66021e-21)
(0.0878292 0.0239564 2.48399e-21)
(0.089734 0.0240648 -2.65555e-21)
(0.0926333 0.0240683 0)
(0.095339 0.0242966 1.57487e-22)
(0.0973944 0.0245039 2.46974e-21)
(0.0988553 0.0246234 4.77001e-23)
(0.0998045 0.0246154 -1.15335e-22)
(0.100229 0.0244772 -2.26617e-21)
(0.100098 0.0241992 -1.24754e-22)
(0.0993909 0.0237762 0)
(0.0980953 0.0232196 1.05849e-22)
(0.096209 0.0225591 0)
(0.0937405 0.0218442 8.43665e-23)
(0.0907139 0.0211459 0)
(0.0871766 0.0205595 0)
(0.0832193 0.020186 -4.78088e-23)
(0.0788919 0.0201018 5.70608e-23)
(0.0738497 0.0203755 -5.07922e-23)
(0.0680396 0.0211419 1.28592e-23)
(0.207096 0.0104073 0)
(0.21117 0.0135757 1.68181e-22)
(0.213238 0.0141381 5.6007e-21)
(0.217314 0.0146811 -5.42012e-21)
(0.221822 0.0156239 1.77625e-22)
(0.225757 0.0166144 0)
(0.22915 0.0174712 2.55079e-21)
(0.232155 0.0182054 -4.82854e-21)
(0.234759 0.0188504 2.59598e-21)
(0.236884 0.0193993 1.47081e-22)
(0.238466 0.0198376 1.37619e-22)
(0.239454 0.020166 1.27168e-22)
(0.239803 0.0203997 0)
(0.239473 0.0205681 -6.24184e-22)
(0.238441 0.0207148 1.44068e-21)
(0.236699 0.0209077 -6.22688e-22)
(0.234285 0.0212252 6.12312e-23)
(0.231243 0.0217517 4.50417e-23)
(0.227453 0.0224807 -1.57595e-23)
(0.221968 0.0236988 1.58569e-23)
(0.377549 -0.00240317 -6.53148e-21)
(0.380841 0.002021 0)
(0.380248 0.00277018 1.84563e-22)
(0.382583 0.00357576 -3.70406e-22)
(0.386304 0.00503898 -3.65494e-22)
(0.389803 0.0065341 -1.84069e-22)
(0.393006 0.00781814 -1.79861e-22)
(0.396141 0.00900726 2.47394e-21)
(0.399186 0.0101842 -2.95202e-21)
(0.402006 0.0113435 -2.6678e-21)
(0.404503 0.0124672 2.222e-21)
(0.406602 0.0135554 -2.64257e-22)
(0.408236 0.0146155 9.13526e-22)
(0.40933 0.0156651 -2.04517e-22)
(0.409835 0.0167228 -9.95771e-22)
(0.40969 0.0178376 -8.50252e-23)
(0.408918 0.0190412 9.48536e-23)
(0.407406 0.0204558 -1.13105e-22)
(0.405543 0.0219822 -1.85481e-22)
(0.401283 0.0241787 -1.01534e-23)
(0.601904 -0.0103058 0)
(0.602033 -0.00608592 5.82203e-21)
(0.597306 -0.0064441 -5.98176e-21)
(0.596045 -0.00588766 1.90389e-22)
(0.597101 -0.00418917 3.85866e-22)
(0.598296 -0.00259507 1.83908e-22)
(0.599487 -0.00128124 3.70102e-22)
(0.600932 3.16156e-05 0)
(0.602554 0.00143828 1.6605e-22)
(0.604173 0.00291578 1.57395e-22)
(0.605683 0.00444382 1.60411e-22)
(0.607011 0.00602468 2.86128e-22)
(0.608109 0.0076545 0)
(0.60889 0.00934449 0)
(0.609344 0.0110852 9.79726e-23)
(0.609342 0.0129309 8.16066e-22)
(0.609053 0.0148401 -5.70421e-22)
(0.608024 0.0170159 5.62641e-23)
(0.607355 0.0191208 1.11335e-22)
(0.604264 0.0223985 -3.42609e-23)
(0.861019 -0.00747014 -7.22272e-21)
(0.858393 -0.00540918 0)
(0.85242 -0.00781208 0)
(0.849742 -0.00806869 6.57979e-21)
(0.848717 -0.00736207 -2.51826e-22)
(0.847563 -0.00684843 -1.27917e-20)
(0.846379 -0.00623897 6.12364e-21)
(0.845401 -0.00529581 0)
(0.844532 -0.00407261 0)
(0.843631 -0.00263729 0)
(0.842665 -0.00104771 -7.3114e-23)
(0.841604 0.000699358 -2.26439e-22)
(0.84048 0.00258472 -2.14176e-21)
(0.839202 0.00461357 2.06122e-21)
(0.837901 0.00672496 -8.27902e-22)
(0.836311 0.00900493 7.31848e-22)
(0.834937 0.0112754 0)
(0.832846 0.0139338 -2.45365e-23)
(0.831893 0.0161127 -3.4463e-23)
(0.828681 0.0200226 0)
(1.12584 -0.00419435 9.43469e-23)
(1.12768 -0.00943226 6.06962e-21)
(1.12582 -0.0123593 -6.00651e-21)
(1.12387 -0.0117607 0)
(1.12115 -0.010557 -6.67638e-21)
(1.11754 -0.00944443 1.32504e-20)
(1.11351 -0.00813849 -6.57496e-21)
(1.10927 -0.00660965 0)
(1.10493 -0.00493714 -3.03624e-21)
(1.10052 -0.00315847 5.88444e-21)
(1.09615 -0.0012536 -2.93389e-21)
(1.09185 0.000788185 7.80461e-23)
(1.08777 0.00289312 0)
(1.08371 0.00509872 2.08529e-21)
(1.08003 0.0072961 -2.87731e-21)
(1.0762 0.00966951 8.67268e-22)
(1.07316 0.0118548 5.69869e-22)
(1.06943 0.0145416 -3.95249e-22)
(1.06758 0.0163427 -1.9656e-22)
(1.06357 0.01996 0)
(1.40945 0.00312465 0)
(1.39359 -0.000745927 0)
(1.38133 -0.00252673 0)
(1.36978 -0.00295222 0)
(1.3589 -0.00290045 0)
(1.34908 -0.00255245 0)
(1.34039 -0.00193803 0)
(1.33257 -0.00106883 0)
(1.32545 1.71914e-05 0)
(1.31891 0.00130174 0)
(1.3129 0.00278555 0)
(1.3072 0.00446279 0)
(1.30197 0.00623065 0)
(1.29692 0.00816004 0)
(1.29249 0.0100761 0)
(1.28793 0.0122481 0)
(1.28444 0.01416 0)
(1.28015 0.0166833 0)
(1.27804 0.0182005 0)
(1.27362 0.0214612 0)
(1.54372 0.0131989 0)
(1.53658 0.0125304 0)
(1.53029 0.0110013 0)
(1.52396 0.00928767 0)
(1.51746 0.00801186 0)
(1.51109 0.00731102 0)
(1.50507 0.00708665 0)
(1.49941 0.00724712 0)
(1.49409 0.00772832 0)
(1.48904 0.00849459 0)
(1.48432 0.00945773 0)
(1.47977 0.0106329 0)
(1.47561 0.0119439 0)
(1.47151 0.0134662 0)
(1.46795 0.0149865 0)
(1.46418 0.016789 0)
(1.46138 0.0183211 0)
(1.45776 0.0204265 0)
(1.45609 0.0216041 0)
(1.45218 0.0241672 0)
(1.64377 0.0175334 0)
(1.64003 0.0155554 0)
(1.63641 0.0140086 0)
(1.63304 0.0125468 0)
(1.62985 0.0114271 0)
(1.62677 0.0108012 0)
(1.62384 0.0106175 0)
(1.62105 0.0107795 0)
(1.61843 0.0112134 0)
(1.61593 0.0118926 0)
(1.61361 0.0127615 0)
(1.6114 0.0138364 0)
(1.60939 0.0150229 0)
(1.60743 0.0164078 0)
(1.60579 0.0177691 0)
(1.60406 0.0193972 0)
(1.60285 0.0207436 0)
(1.60129 0.0226056 0)
(1.60066 0.0236055 0)
(1.5991 0.0257855 0)
(1.72737 0.0211476 0)
(1.72598 0.0183268 0)
(1.72392 0.0163494 0)
(1.72199 0.0147559 0)
(1.72044 0.0135196 0)
(1.71917 0.0127164 0)
(1.71806 0.0123402 0)
(1.7171 0.0123301 0)
(1.71628 0.012611 0)
(1.71564 0.013153 0)
(1.71511 0.0138901 0)
(1.71477 0.0148423 0)
(1.7145 0.0158962 0)
(1.71447 0.0171604 0)
(1.71444 0.0183828 0)
(1.71473 0.0198881 0)
(1.71491 0.0210861 0)
(1.71558 0.0228132 0)
(1.71583 0.0236795 0)
(1.717 0.0257142 0)
(1.8046 0.0232857 0)
(1.8047 0.0199593 0)
(1.80382 0.0175428 0)
(1.80285 0.0157303 0)
(1.80221 0.0143498 0)
(1.80192 0.0133776 0)
(1.80179 0.0128059 0)
(1.80184 0.0126069 0)
(1.80198 0.0127089 0)
(1.80236 0.0130878 0)
(1.80279 0.0136591 0)
(1.80354 0.0144614 0)
(1.80424 0.0153523 0)
(1.80539 0.0164786 0)
(1.80628 0.0175382 0)
(1.80791 0.0189183 0)
(1.80885 0.0199555 0)
(1.81111 0.0215713 0)
(1.81183 0.0223089 0)
(1.81501 0.0242498 0)
(1.88243 0.0240415 0)
(1.88328 0.0205066 0)
(1.88316 0.0178369 0)
(1.88279 0.0158564 0)
(1.88261 0.0143628 0)
(1.88276 0.0132723 0)
(1.88307 0.0125517 0)
(1.88359 0.0121923 0)
(1.88413 0.0121256 0)
(1.88496 0.0123446 0)
(1.88576 0.0127457 0)
(1.887 0.0133908 0)
(1.88805 0.0141059 0)
(1.88975 0.0150791 0)
(1.89096 0.0159604 0)
(1.89325 0.0171961 0)
(1.89445 0.0180642 0)
(1.8975 0.0195468 0)
(1.89837 0.020159 0)
(1.90255 0.0219707 0)
(1.96337 0.0239838 0)
(1.96456 0.0204946 0)
(1.96483 0.0177551 0)
(1.96475 0.0156743 0)
(1.96472 0.014089 0)
(1.965 0.0129052 0)
(1.96541 0.0120653 0)
(1.96604 0.0115681 0)
(1.96666 0.0113451 0)
(1.96759 0.0114089 0)
(1.96843 0.0116419 0)
(1.96978 0.0121258 0)
(1.97084 0.0126636 0)
(1.97268 0.0134718 0)
(1.97388 0.0141739 0)
(1.97634 0.0152449 0)
(1.97751 0.0159484 0)
(1.9808 0.0172664 0)
(1.98161 0.0177626 0)
(1.98607 0.0193954 0)
(2.04618 0.0236302 0)
(2.0475 0.0203047 0)
(2.04796 0.0175862 0)
(2.04804 0.0154512 0)
(2.04806 0.0137914 0)
(2.04835 0.0125275 0)
(2.04872 0.0115873 0)
(2.04935 0.0109696 0)
(2.04992 0.0106047 0)
(2.05082 0.0105194 0)
(2.05157 0.0105917 0)
(2.05288 0.010914 0)
(2.05383 0.0112817 0)
(2.05563 0.0119186 0)
(2.0567 0.0124505 0)
(2.05912 0.0133431 0)
(2.06016 0.0138943 0)
(2.0634 0.015024 0)
(2.06411 0.0154173 0)
(2.06848 0.0168349 0)
(2.12751 0.0231508 0)
(2.12896 0.020004 0)
(2.12964 0.0173392 0)
(2.12992 0.0151858 0)
(2.13008 0.0134775 0)
(2.13047 0.0121523 0)
(2.13088 0.0111317 0)
(2.13156 0.0104121 0)
(2.13213 0.00992359 0)
(2.13306 0.00970069 0)
(2.13379 0.00962571 0)
(2.13509 0.00979181 0)
(2.13598 0.0100021 0)
(2.13776 0.0104686 0)
(2.13875 0.010844 0)
(2.14114 0.0115534 0)
(2.14208 0.0119673 0)
(2.14526 0.0128978 0)
(2.14589 0.0132008 0)
(2.15014 0.0143866 0)
(2.20396 0.0223928 0)
(2.20573 0.01942 0)
(2.20681 0.016833 0)
(2.20753 0.0146988 0)
(2.20806 0.0129778 0)
(2.20877 0.0116192 0)
(2.20944 0.0105435 0)
(2.21037 0.00974485 0)
(2.21115 0.0091563 0)
(2.2123 0.00881417 0)
(2.21318 0.00861142 0)
(2.21466 0.00863441 0)
(2.21566 0.00870508 0)
(2.2176 0.0090108 0)
(2.21865 0.00924694 0)
(2.22116 0.00977995 0)
(2.22212 0.0100724 0)
(2.2254 0.0108077 0)
(2.22603 0.0110319 0)
(2.23035 0.0119895 0)
(2.27413 0.0210259 0)
(2.2765 0.0182447 0)
(2.27828 0.0157705 0)
(2.27973 0.0136998 0)
(2.28094 0.0120088 0)
(2.28226 0.0106535 0)
(2.28347 0.00955589 0)
(2.28493 0.00870929 0)
(2.28617 0.00805149 0)
(2.28779 0.00761847 0)
(2.28906 0.00731534 0)
(2.29097 0.00721969 0)
(2.29228 0.0071751 0)
(2.29459 0.00734229 0)
(2.29588 0.00746121 0)
(2.29873 0.0078386 0)
(2.29986 0.00802793 0)
(2.30346 0.0085888 0)
(2.30417 0.00874592 0)
(2.3088 0.00949927 0)
(2.34037 0.0186885 0)
(2.34358 0.0161417 0)
(2.3463 0.0138324 0)
(2.34874 0.0118793 0)
(2.35086 0.0102689 0)
(2.35303 0.00896341 0)
(2.355 0.00788674 0)
(2.35718 0.0070349 0)
(2.35908 0.00634894 0)
(2.36135 0.00586625 0)
(2.36319 0.00550026 0)
(2.36567 0.00532435 0)
(2.36744 0.00519782 0)
(2.37026 0.00526325 0)
(2.37192 0.00529382 0)
(2.37524 0.0055522 0)
(2.37663 0.00566115 0)
(2.38067 0.00608566 0)
(2.38152 0.00618921 0)
(2.38661 0.00678125 0)
(2.40948 0.0151755 0)
(2.4135 0.0129219 0)
(2.41715 0.010846 0)
(2.42055 0.00907573 0)
(2.42356 0.00760362 0)
(2.42656 0.00640301 0)
(2.42926 0.00539908 0)
(2.43214 0.004595 0)
(2.43466 0.0039307 0)
(2.43754 0.00345044 0)
(2.4399 0.00306778 0)
(2.4429 0.00286124 0)
(2.4451 0.0026936 0)
(2.44837 0.00270549 0)
(2.45034 0.00268245 0)
(2.45405 0.00287002 0)
(2.45565 0.00292524 0)
(2.46003 0.00326369 0)
(2.461 0.00332909 0)
(2.4664 0.00381557 0)
(2.49049 0.0106997 0)
(2.49486 0.00879357 0)
(2.49898 0.00701855 0)
(2.5029 0.00549374 0)
(2.5064 0.00421303 0)
(2.50981 0.00316814 0)
(2.51287 0.00228591 0)
(2.51605 0.00158092 0)
(2.51884 0.000986505 0)
(2.52194 0.000559394 0)
(2.5245 0.000205355 0)
(2.52765 1.73685e-05 0)
(2.52997 -0.000151225 0)
(2.5333 -0.000145299 0)
(2.53534 -0.000187961 0)
(2.53903 -2.40137e-05 0)
(2.54065 3.31247e-06 0)
(2.54493 0.000304191 0)
(2.54589 0.000346312 0)
(2.5511 0.000780348 0)
(2.58925 0.00600506 0)
(2.59318 0.00447045 0)
(2.59698 0.00303335 0)
(2.60062 0.00178828 0)
(2.60385 0.000728441 0)
(2.60695 -0.000133271 0)
(2.60968 -0.000866007 0)
(2.61249 -0.0014408 0)
(2.61493 -0.00193439 0)
(2.61762 -0.00227614 0)
(2.61982 -0.00257242 0)
(2.6225 -0.00271108 0)
(2.62446 -0.00285416 0)
(2.62724 -0.00282464 0)
(2.62893 -0.00286399 0)
(2.63199 -0.00269499 0)
(2.63331 -0.00267752 0)
(2.63682 -0.00238576 0)
(2.6376 -0.00235611 0)
(2.64184 -0.00194436 0)
(2.70269 0.00209201 0)
(2.70544 0.000906977 0)
(2.70815 -0.000202944 0)
(2.71074 -0.00117332 0)
(2.71299 -0.00201593 0)
(2.71507 -0.00269826 0)
(2.71684 -0.00328324 0)
(2.71861 -0.00372912 0)
(2.72011 -0.00411971 0)
(2.72177 -0.00437439 0)
(2.72307 -0.00460839 0)
(2.72468 -0.00469556 0)
(2.7258 -0.00480726 0)
(2.72746 -0.00475232 0)
(2.7284 -0.00478182 0)
(2.73022 -0.00460699 0)
(2.73095 -0.00459293 0)
(2.73305 -0.00431116 0)
(2.73347 -0.00428918 0)
(2.73602 -0.00390203 0)
(2.81819 -0.000382618 0)
(2.81949 -0.00126463 0)
(2.82082 -0.00208746 0)
(2.82203 -0.00281246 0)
(2.82297 -0.00345769 0)
(2.82371 -0.00397939 0)
(2.82422 -0.00443242 0)
(2.82466 -0.00476866 0)
(2.82495 -0.0050697 0)
(2.82525 -0.00525432 0)
(2.82541 -0.00543494 0)
(2.82564 -0.00548644 0)
(2.82571 -0.00557274 0)
(2.82592 -0.00550914 0)
(2.82594 -0.00553218 0)
(2.8262 -0.00537028 0)
(2.8262 -0.00536059 0)
(2.82655 -0.00511037 0)
(2.82654 -0.00509521 0)
(2.827 -0.00475767 0)
(2.91984 -0.00142237 0)
(2.91991 -0.00204372 0)
(2.92002 -0.00261656 0)
(2.91998 -0.00312138 0)
(2.91974 -0.0035784 0)
(2.91925 -0.00394756 0)
(2.91862 -0.00427254 0)
(2.91781 -0.00450874 0)
(2.91698 -0.00472453 0)
(2.91601 -0.00485039 0)
(2.9151 -0.0049806 0)
(2.91401 -0.0050097 0)
(2.9131 -0.00507277 0)
(2.91193 -0.00501691 0)
(2.91108 -0.00503467 0)
(2.90984 -0.00490566 0)
(2.90916 -0.00490018 0)
(2.90781 -0.00470514 0)
(2.90741 -0.00469558 0)
(2.90587 -0.00443507 0)
(2.99495 -0.00128122 0)
(2.99415 -0.00168542 0)
(2.99338 -0.00204389 0)
(2.99243 -0.00235099 0)
(2.99133 -0.00262747 0)
(2.98993 -0.00284906 0)
(2.98845 -0.00304478 0)
(2.98671 -0.0031846 0)
(2.98505 -0.00331365 0)
(2.98312 -0.00338633 0)
(2.98142 -0.0034641 0)
(2.97933 -0.00347826 0)
(2.97769 -0.0035157 0)
(2.97546 -0.00347805 0)
(2.97397 -0.00348816 0)
(2.97157 -0.00340576 0)
(2.97039 -0.0034019 0)
(2.96774 -0.00327891 0)
(2.96704 -0.00327274 0)
(2.96397 -0.00310895 0)
(3.03494 -0.000339114 0)
(3.03366 -0.00051653 0)
(3.03244 -0.000666535 0)
(3.031 -0.000790212 0)
(3.02943 -0.000898364 0)
(3.02752 -0.000984476 0)
(3.02558 -0.00105938 0)
(3.02333 -0.00111337 0)
(3.02123 -0.00116236 0)
(3.01877 -0.00119116 0)
(3.01665 -0.00122083 0)
(3.01402 -0.00122836 0)
(3.01199 -0.0012431 0)
(3.00918 -0.00123218 0)
(3.00736 -0.00123678 0)
(3.00433 -0.0012102 0)
(3.00288 -0.00120944 0)
(2.99952 -0.00116881 0)
(2.99867 -0.00116688 0)
(2.99476 -0.00111216 0)
(1.79382 0.120051 1.69848e-21)
(1.80077 0.107495 0)
(1.79746 0.0942926 -2.71403e-22)
(1.78549 0.0808512 -8.13527e-21)
(1.76351 0.0672996 1.19767e-20)
(1.73552 0.0547264 0)
(1.69689 0.041614 8.71952e-21)
(1.64621 0.0323273 0)
(1.59905 0.017604 7.23529e-21)
(1.43335 0.00543865 -1.10365e-22)
(1.85392 0.110605 -1.97358e-21)
(1.85892 0.0999732 3.68337e-22)
(1.85452 0.0885608 -3.69078e-22)
(1.84108 0.0779943 -1.12073e-21)
(1.82062 0.0661996 -7.69714e-21)
(1.78901 0.0570109 -4.3942e-22)
(1.76302 0.0453069 0)
(1.69953 0.0378862 -1.01732e-20)
(1.69563 0.0295203 0)
(1.55113 0.0142812 -7.37946e-21)
(1.91953 0.101153 4.08008e-21)
(1.92167 0.0921566 0)
(1.91802 0.0818382 -3.44021e-22)
(1.90051 0.0732322 -7.13425e-22)
(1.88505 0.0629609 8.14676e-21)
(1.84473 0.0555626 0)
(1.8319 0.0469683 1.33481e-20)
(1.75686 0.0387637 1.04966e-20)
(1.76465 0.0352723 0)
(1.64724 0.0214546 7.30365e-21)
(1.9874 0.0929058 -1.85517e-21)
(1.98636 0.0850811 7.44708e-21)
(1.98565 0.0760684 0)
(1.9636 0.0684773 1.06745e-20)
(1.95443 0.0601563 5.61335e-22)
(1.9072 0.0526857 -1.04828e-21)
(1.90066 0.0469883 -1.27798e-20)
(1.824 0.0376875 -4.20688e-22)
(1.82563 0.0355874 -1.20271e-20)
(1.72779 0.0255232 0)
(2.05439 0.0857192 0)
(2.05082 0.078639 -7.26835e-21)
(2.05357 0.0712138 -8.0348e-21)
(2.02916 0.0639762 1.11618e-21)
(2.02454 0.0576494 -7.09713e-22)
(1.97624 0.049774 -5.39785e-22)
(1.96967 0.0456602 -1.60338e-20)
(1.89831 0.0368573 -8.88504e-22)
(1.89199 0.0342941 -1.01472e-21)
(1.80343 0.0275315 1.13743e-20)
(2.11762 0.0791802 2.41142e-21)
(2.11304 0.0726243 4.92753e-22)
(2.11834 0.066674 -1.31515e-21)
(2.09472 0.0597332 4.33441e-22)
(2.09247 0.0548179 -1.18432e-20)
(2.04793 0.0473254 0)
(2.04017 0.0436726 1.75282e-20)
(1.97554 0.0365429 -5.196e-22)
(1.96615 0.0332045 2.78695e-20)
(1.88082 0.0282282 -2.38206e-20)
(2.17492 0.0729108 -2.42328e-21)
(2.17084 0.0669226 -4.45944e-21)
(2.1778 0.0620515 7.60852e-21)
(2.15713 0.0557471 -1.33054e-20)
(2.15667 0.0515844 -1.54521e-21)
(2.11765 0.0452032 -1.11173e-20)
(2.11104 0.0415514 5.63562e-22)
(2.05219 0.0360294 -1.06146e-21)
(2.04427 0.0322433 -1.3992e-20)
(1.96171 0.028043 1.24358e-20)
(2.22544 0.0665737 0)
(2.22271 0.0613046 9.64972e-21)
(2.2311 0.0571637 -1.02151e-21)
(2.21395 0.0517944 7.23168e-21)
(2.21589 0.0480646 -6.63053e-22)
(2.18219 0.0429403 2.22168e-20)
(2.17907 0.0393498 -9.90105e-21)
(2.1257 0.0348954 0)
(2.12147 0.0311586 0)
(2.04451 0.0274266 0)
(2.27019 0.0599349 0)
(2.26899 0.0554561 -8.87363e-21)
(2.27883 0.0518899 -5.59601e-22)
(2.26478 0.0475072 7.4299e-21)
(2.26948 0.0442097 1.32961e-20)
(2.24041 0.0401342 -1.24993e-20)
(2.24138 0.0368818 1.19115e-20)
(2.19422 0.0331813 -6.37637e-22)
(2.19384 0.0298752 0)
(2.12578 0.0266474 7.93154e-21)
(2.31249 0.052845 3.20886e-22)
(2.31267 0.0491078 5.06564e-21)
(2.32361 0.0460869 7.808e-21)
(2.31195 0.0425726 -4.19578e-22)
(2.31862 0.0398061 9.33075e-22)
(2.29361 0.0365716 -1.3689e-20)
(2.29741 0.0338781 1.30964e-20)
(2.2571 0.030909 -6.70508e-22)
(2.2593 0.0281622 0)
(2.20198 0.0256065 -1.62388e-20)
(2.35812 0.0453187 0)
(2.35939 0.0422152 5.05066e-21)
(2.3705 0.0397059 2.20222e-22)
(2.36052 0.0369124 0)
(2.36744 0.0346854 0)
(2.34573 0.0321927 1.21419e-20)
(2.35004 0.0300676 -1.08644e-20)
(2.31603 0.0279049 -6.36492e-22)
(2.31886 0.0256397 3.42256e-22)
(2.27161 0.0239527 8.58509e-21)
(2.41437 0.0372854 0)
(2.41621 0.0348097 -9.62643e-21)
(2.42636 0.0327664 -1.03637e-20)
(2.41724 0.0306171 1.55482e-21)
(2.42265 0.0288178 -9.94412e-22)
(2.40297 0.0270299 -8.16408e-22)
(2.40563 0.0253019 1.54063e-21)
(2.37581 0.0239736 9.85277e-21)
(2.37761 0.0220295 9.48901e-22)
(2.33708 0.0213006 -2.92403e-22)
(2.48763 0.0291485 0)
(2.48928 0.0272908 5.18866e-21)
(2.49763 0.0256073 -5.68813e-22)
(2.48845 0.0240356 5.64116e-22)
(2.49146 0.0224797 0)
(2.47224 0.0213134 0)
(2.47234 0.0197603 0)
(2.44377 0.0191464 -1.11871e-20)
(2.44389 0.0173788 1.0467e-20)
(2.40544 0.0174455 0)
(2.57956 0.0217575 0)
(2.58017 0.0203886 3.31664e-21)
(2.58662 0.0189225 4.25436e-21)
(2.5767 0.0177869 5.49321e-21)
(2.57778 0.0163242 -1.04238e-21)
(2.55793 0.0155749 6.40991e-21)
(2.55622 0.0140623 -5.73424e-21)
(2.5268 0.0138492 0)
(2.52579 0.0121936 6.35703e-22)
(2.48612 0.0126185 -9.91566e-21)
(2.68442 0.0156954 -7.41791e-22)
(2.68356 0.0146523 -2.69098e-21)
(2.6887 0.0133554 -5.50013e-21)
(2.67813 0.0124638 -3.86462e-21)
(2.67864 0.0110881 0)
(2.65847 0.0104781 -8.15365e-21)
(2.65663 0.00903534 8.22986e-21)
(2.62673 0.00882383 -7.79496e-22)
(2.62571 0.00731866 -5.17969e-21)
(2.58536 0.00758524 1.44153e-20)
(2.79005 0.0112194 7.45598e-22)
(2.78819 0.0103366 -2.09637e-21)
(2.79277 0.00924896 1.86667e-21)
(2.78267 0.00842212 -4.58731e-21)
(2.7838 0.00723831 0)
(2.76523 0.00654674 0)
(2.76455 0.00530197 8.11411e-22)
(2.73712 0.00482334 -7.65558e-21)
(2.73679 0.00355242 -4.70587e-21)
(2.70002 0.00336344 -4.85223e-21)
(2.88344 0.00799028 0)
(2.88179 0.00719414 3.43668e-21)
(2.8862 0.00638586 -1.25195e-21)
(2.87826 0.00556621 4.09113e-21)
(2.88029 0.00468114 1.09393e-21)
(2.86577 0.00387307 -9.12914e-22)
(2.86635 0.00292805 1.71567e-21)
(2.84502 0.00218676 5.30118e-21)
(2.84526 0.00119939 0)
(2.81698 0.000611607 0)
(2.95728 0.00530516 0)
(2.95686 0.00467456 1.40736e-21)
(2.96091 0.00419878 -2.56187e-21)
(2.95622 0.00348904 0)
(2.95854 0.0029428 -2.13223e-21)
(2.9495 0.00216594 -9.24019e-22)
(2.95055 0.0015401 -2.57971e-21)
(2.93716 0.000743241 -7.49902e-22)
(2.93741 3.76847e-05 3.90456e-22)
(2.91984 -0.000689603 3.26813e-22)
(3.01007 0.00280078 0)
(3.01081 0.00248091 -1.41409e-21)
(3.01398 0.00234259 -1.27312e-21)
(3.01223 0.00192252 1.75154e-21)
(3.01408 0.0016993 1.02024e-21)
(3.00994 0.00117267 9.70084e-22)
(3.01065 0.000843077 4.31245e-21)
(3.0043 0.000245331 -3.14145e-21)
(3.00407 -0.000193966 7.30336e-22)
(2.9958 -0.000792134 0)
(3.03904 0.000640765 0)
(3.04025 0.000651727 6.90544e-22)
(3.04254 0.000736519 -6.59049e-22)
(3.04237 0.000686457 6.21619e-22)
(3.04359 0.000704294 0)
(3.04221 0.000570546 -9.74869e-22)
(3.04242 0.000501264 8.47134e-22)
(3.04005 0.000292603 7.52131e-22)
(3.03933 0.000133868 0)
(3.03629 -0.000121795 0)
(1.12601 0.226103 0)
(1.06431 0.246654 -5.45185e-20)
(1.01537 0.274708 0)
(0.975729 0.311229 -1.8053e-19)
(0.941128 0.355801 6.83521e-20)
(0.909103 0.410053 2.18757e-21)
(0.876294 0.474131 6.04139e-20)
(0.824864 0.536394 -6.84467e-21)
(0.69815 0.543619 0)
(0.386511 0.332719 6.37239e-20)
(1.21736 0.228644 9.96998e-20)
(1.15687 0.255237 5.45174e-20)
(1.10756 0.281966 -5.19339e-20)
(1.06634 0.317302 6.08084e-20)
(1.03137 0.36184 -5.23453e-20)
(1.00143 0.416131 7.20767e-21)
(0.97241 0.47977 -6.18202e-20)
(0.923501 0.540382 -1.23549e-19)
(0.788925 0.544188 -3.2803e-20)
(0.437404 0.327986 -9.33041e-20)
(1.30367 0.227244 -4.42173e-20)
(1.24724 0.25607 4.58132e-20)
(1.1988 0.282169 5.19323e-20)
(1.15618 0.316658 5.32801e-20)
(1.12057 0.360692 5.45025e-20)
(1.09233 0.414146 5.53425e-20)
(1.06655 0.475999 8.59732e-21)
(1.01899 0.5329 5.41303e-20)
(0.874713 0.531411 2.16556e-20)
(0.482464 0.313257 -2.31168e-20)
(1.38741 0.223317 8.83043e-20)
(1.3336 0.252616 -4.58113e-20)
(1.28589 0.277868 0)
(1.24258 0.310968 0)
(1.20676 0.353416 0)
(1.17998 0.404755 4.18681e-20)
(1.15651 0.463253 -3.61391e-20)