/*--------------------------------*- C++ -*----------------------------------*\
| =========                 |                                                 |
| \\      /  F ield         | OpenFOAM: The Open Source CFD Toolbox           |
|  \\    /   O peration     | Version:  4.1                                   |
|   \\  /    A nd           | Web:      www.OpenFOAM.org                      |
|    \\/     M anipulation  |                                                 |
\*---------------------------------------------------------------------------*/
FoamFile
{
    version     2.0;
    format      ascii;
    class       volScalarField;
    location    "7.8";
    object      p;
}
// * * * * * * * * * * * * * * * * * * * * * * * * * * * * * * * * * * * * * //

dimensions      [0 2 -2 0 0 0 0];

internalField   nonuniform List<scalar> 
2000
(
-0.4303
-0.41885
-0.407804
-0.397676
-0.388871
-0.380656
-0.371623
-0.362016
-0.348766
-0.338007
-0.453359
-0.43798
-0.424253
-0.411491
-0.39918
-0.386287
-0.372035
-0.356361
-0.338603
-0.322037
-0.481894
-0.461736
-0.444799
-0.428376
-0.410758
-0.39141
-0.370521
-0.348827
-0.326434
-0.304906
-0.516041
-0.4902
-0.469303
-0.447356
-0.42208
-0.394539
-0.366348
-0.338736
-0.311927
-0.287941
-0.555264
-0.522758
-0.496638
-0.466385
-0.431006
-0.394097
-0.358403
-0.325109
-0.294597
-0.267583
-0.597552
-0.557896
-0.524098
-0.482336
-0.435047
-0.388375
-0.345433
-0.30699
-0.272914
-0.243075
-0.639304
-0.592892
-0.54764
-0.491588
-0.431737
-0.375724
-0.326187
-0.283098
-0.245758
-0.213031
-0.675527
-0.623255
-0.56287
-0.490896
-0.418943
-0.354613
-0.299376
-0.252305
-0.21195
-0.176545
-0.700987
-0.643203
-0.565649
-0.477701
-0.394928
-0.32364
-0.263791
-0.213525
-0.170691
-0.1332
-0.711143
-0.647303
-0.552242
-0.450007
-0.358344
-0.281647
-0.218357
-0.165811
-0.121287
-0.0827109
-0.327577
-0.334207
-0.337479
-0.340458
-0.343542
-0.346406
-0.348776
-0.350449
-0.351393
-0.351863
-0.331375
-0.33743
-0.340489
-0.343421
-0.346514
-0.349418
-0.351832
-0.353487
-0.354265
-0.354759
-0.338318
-0.343229
-0.345861
-0.348588
-0.351568
-0.354409
-0.356775
-0.35833
-0.358725
-0.358743
-0.347238
-0.35062
-0.352519
-0.354739
-0.357324
-0.359846
-0.361926
-0.363257
-0.363159
-0.360664
-0.356979
-0.358648
-0.359437
-0.360737
-0.362535
-0.364417
-0.365941
-0.366705
-0.36591
-0.361985
-0.366764
-0.366692
-0.365971
-0.365905
-0.366501
-0.367443
-0.368198
-0.368258
-0.367327
-0.359956
-0.376425
-0.374549
-0.372116
-0.370242
-0.369275
-0.369034
-0.368885
-0.367959
-0.367922
-0.356285
-0.38647
-0.382738
-0.378334
-0.374435
-0.371719
-0.370132
-0.369062
-0.366835
-0.367539
-0.353837
-0.397945
-0.392134
-0.385628
-0.379675
-0.375185
-0.372091
-0.369572
-0.366078
-0.365097
-0.353044
-0.412144
-0.403831
-0.395138
-0.387162
-0.380769
-0.375647
-0.370502
-0.365004
-0.358859
-0.34988
-0.352014
-0.350878
-0.348608
-0.345004
-0.339838
-0.33288
-0.323898
-0.312703
-0.2992
-0.28337
-0.265069
-0.244227
-0.220843
-0.19497
-0.166723
-0.136383
-0.104531
-0.071417
-0.0359182
-0.000899225
-0.356031
-0.355126
-0.353074
-0.349749
-0.344872
-0.338193
-0.329446
-0.318395
-0.305381
-0.289881
-0.271816
-0.251148
-0.227886
-0.202096
-0.173893
-0.143486
-0.11131
-0.0777807
-0.0419368
-0.00326729
-0.362337
-0.361628
-0.359937
-0.357126
-0.352804
-0.346693
-0.338566
-0.328362
-0.315614
-0.300431
-0.282668
-0.262236
-0.239119
-0.213368
-0.185105
-0.154491
-0.12165
-0.0869675
-0.0499614
-0.00972053
-0.369609
-0.367609
-0.366529
-0.364344
-0.360641
-0.355108
-0.347658
-0.338084
-0.326021
-0.311376
-0.294005
-0.273824
-0.250803
-0.224975
-0.196431
-0.165297
-0.131722
-0.0956967
-0.0573706
-0.0157749
-0.371434
-0.372562
-0.371333
-0.36943
-0.366313
-0.361731
-0.355084
-0.346051
-0.334551
-0.320367
-0.303325
-0.28332
-0.260303
-0.234288
-0.20534
-0.173552
-0.139089
-0.101843
-0.0624639
-0.0191681
-0.372151
-0.375353
-0.373908
-0.372087
-0.369723
-0.365542
-0.359309
-0.350757
-0.339651
-0.325773
-0.308932
-0.289003
-0.265912
-0.23967
-0.210333
-0.177988
-0.142847
-0.104777
-0.0646078
-0.0207523
-0.36998
-0.375586
-0.374402
-0.371889
-0.36942
-0.365691
-0.359789
-0.35144
-0.340484
-0.32671
-0.3099
-0.289936
-0.266729
-0.240318
-0.210741
-0.178151
-0.142741
-0.104575
-0.064291
-0.0212268
-0.366768
-0.372839
-0.370721
-0.367769
-0.365294
-0.36156
-0.355625
-0.347274
-0.3363
-0.322484
-0.305614
-0.28562
-0.262394
-0.236048
-0.206564
-0.174255
-0.139164
-0.101754
-0.0621848
-0.0209868
-0.363809
-0.366847
-0.363337
-0.3599
-0.356783
-0.352501
-0.346344
-0.337958
-0.326979
-0.313199
-0.296423
-0.276646
-0.253731
-0.227882
-0.199003
-0.167599
-0.133501
-0.09759
-0.0594368
-0.0205464
-0.358047
-0.357813
-0.353483
-0.348694
-0.343828
-0.338396
-0.331711
-0.32312
-0.312119
-0.298519
-0.282113
-0.262928
-0.240781
-0.215946
-0.18825
-0.158355
-0.125932
-0.0921748
-0.0562253
-0.020066
-0.335455
-0.340949
-0.338641
-0.333044
-0.326975
-0.320813
-0.313693
-0.30475
-0.293462
-0.279718
-0.263397
-0.244592
-0.223162
-0.199403
-0.173161
-0.145111
-0.114906
-0.0838032
-0.0508117
-0.0182065
-0.311728
-0.322106
-0.320658
-0.313429
-0.305664
-0.298573
-0.291095
-0.282039
-0.270768
-0.257221
-0.241368
-0.223365
-0.203094
-0.180855
-0.156479
-0.130639
-0.10296
-0.074707
-0.0448657
-0.0158905
-0.286002
-0.299541
-0.298879
-0.291133
-0.282751
-0.275441
-0.268101
-0.259367
-0.248526
-0.235555
-0.220495
-0.203556
-0.18464
-0.164046
-0.141597
-0.11795
-0.0927231
-0.0671633
-0.0402858
-0.0144466
-0.26
-0.274834
-0.275353
-0.268312
-0.26025
-0.253177
-0.246177
-0.237917
-0.227671
-0.215426
-0.201266
-0.185439
-0.16787
-0.148861
-0.128232
-0.106626
-0.0836563
-0.0605262
-0.0362505
-0.0130295
-0.234237
-0.249513
-0.251494
-0.245816
-0.238587
-0.232003
-0.225443
-0.217731
-0.208168
-0.196739
-0.183539
-0.16884
-0.152591
-0.135099
-0.116188
-0.0964757
-0.0755775
-0.0546364
-0.0326796
-0.0117843
-0.209277
-0.224728
-0.228122
-0.223994
-0.217841
-0.211922
-0.205904
-0.19881
-0.189997
-0.179443
-0.167237
-0.153668
-0.1387
-0.12265
-0.105344
-0.0873795
-0.0683685
-0.0494002
-0.0295199
-0.0106889
-0.185802
-0.201133
-0.205678
-0.20305
-0.198075
-0.192951
-0.187568
-0.181148
-0.173121
-0.163465
-0.152259
-0.139797
-0.126058
-0.111366
-0.09555
-0.079191
-0.0618965
-0.0447112
-0.0266945
-0.00971098
-0.164055
-0.178965
-0.184383
-0.183135
-0.179361
-0.175109
-0.170425
-0.16471
-0.157477
-0.148716
-0.138493
-0.127102
-0.114531
-0.101113
-0.0866761
-0.0717908
-0.0560591
-0.0404901
-0.0241523
-0.00883556
-0.143991
-0.158312
-0.164389
-0.164384
-0.161778
-0.158424
-0.154467
-0.149466
-0.143017
-0.135128
-0.125856
-0.115489
-0.104022
-0.0917916
-0.0786289
-0.0650944
-0.0507851
-0.0366823
-0.0218599
-0.00805074
-0.125581
-0.13925
-0.145823
-0.146913
-0.145407
-0.142934
-0.139703
-0.135404
-0.129715
-0.122663
-0.114296
-0.104899
-0.0944642
-0.0833354
-0.0713432
-0.0590426
-0.0460244
-0.0332493
-0.0197935
-0.0073469
-0.108858
-0.121846
-0.128775
-0.130818
-0.130319
-0.128683
-0.126154
-0.122532
-0.117565
-0.111302
-0.103785
-0.0952922
-0.0858143
-0.0756983
-0.0647744
-0.0535942
-0.0417424
-0.0301647
-0.017937
-0.00671726
-0.0938478
-0.106138
-0.113308
-0.116169
-0.116576
-0.115719
-0.11385
-0.110863
-0.10657
-0.101039
-0.0943082
-0.0866481
-0.0780456
-0.0688509
-0.0588931
-0.0487218
-0.037916
-0.0274106
-0.0162795
-0.00615719
-0.0805422
-0.0921419
-0.0994637
-0.10302
-0.104234
-0.104084
-0.102823
-0.100419
-0.0967416
-0.0918792
-0.0858621
-0.0789561
-0.071143
-0.0627754
-0.0536807
-0.044408
-0.0345304
-0.0249754
-0.014814
-0.00566351
-0.0689248
-0.0798703
-0.0872783
-0.091421
-0.0933396
-0.0938191
-0.0931035
-0.0912228
-0.088096
-0.0838297
-0.0784488
-0.0722131
-0.0650993
-0.0574619
-0.0491263
-0.0406418
-0.0315761
-0.0228516
-0.013536
-0.00523405
-0.0589826
-0.0693323
-0.0767807
-0.081409
-0.083931
-0.0849578
-0.0847187
-0.0832951
-0.0806487
-0.0769015
-0.072074
-0.0664205
-0.0599125
-0.0529059
-0.0452242
-0.037417
-0.0290476
-0.0210347
-0.0124428
-0.00486744
-0.0507043
-0.0605336
-0.067993
-0.0730149
-0.0760399
-0.0775281
-0.0776921
-0.0766552
-0.0744146
-0.0711056
-0.066745
-0.0615819
-0.0555834
-0.049106
-0.0419715
-0.0347303
-0.0269417
-0.0195221
-0.0115327
-0.00456279
-0.0440803
-0.05348
-0.0609353
-0.0662662
-0.0696937
-0.0715541
-0.0720442
-0.0713201
-0.0694076
-0.0664528
-0.0624695
-0.0577023
-0.0521143
-0.0460626
-0.0393678
-0.0325805
-0.0252573
-0.0183125
-0.0108049
-0.00431956
-0.0390994
-0.0481767
-0.0556275
-0.0611897
-0.0649198
-0.0670599
-0.0677954
-0.0673068
-0.0656416
-0.0629543
-0.059256
-0.0547875
-0.049509
-0.0437778
-0.0374138
-0.0309676
-0.023994
-0.0174056
-0.0102597
-0.00413732
-0.035718
-0.0445979
-0.0520619
-0.0577896
-0.0617274
-0.0640566
-0.0649564
-0.064625
-0.0631255
-0.0606174
-0.0571101
-0.0528415
-0.0477705
-0.0422531
-0.0361107
-0.0298912
-0.0231526
-0.0167999
-0.00989912
-0.00401324
-0.033915
-0.0427214
-0.0502216
-0.0560532
-0.0601084
-0.0625395
-0.0635262
-0.0632754
-0.0618614
-0.0594434
-0.0560348
-0.0518651
-0.0469014
-0.0414874
-0.0354617
-0.0293482
-0.0227377
-0.0164883
-0.00972999
-0.0039356
-0.0512922
-0.101442
-0.145366
-0.183138
-0.214987
-0.241499
-0.263694
-0.282938
-0.299219
-0.323515
-0.0249112
-0.0733918
-0.116004
-0.153232
-0.185003
-0.212602
-0.235161
-0.257065
-0.272686
-0.296765
-0.00117735
-0.047458
-0.088095
-0.124195
-0.154995
-0.183001
-0.205241
-0.228198
-0.243592
-0.26607
0.0200644
-0.0241108
-0.0629534
-0.0980537
-0.12791
-0.155838
-0.177772
-0.200512
-0.216799
-0.238486
0.0390326
-0.0033144
-0.0406864
-0.07489
-0.104017
-0.131523
-0.153425
-0.175674
-0.192889
-0.213414
0.0559501
0.0152438
-0.0208534
-0.0541123
-0.0825984
-0.109446
-0.131335
-0.152909
-0.170217
-0.189447
0.0710707
0.0318843
-0.00304619
-0.0352983
-0.0631406
-0.0891859
-0.11083
-0.131577
-0.148541
-0.166871
0.084615
0.0468405
0.0129939
-0.0182468
-0.0454266
-0.0706356
-0.0918657
-0.111877
-0.128501
-0.146133
0.0967508
0.060272
0.0274298
-0.00284601
-0.0293668
-0.0537999
-0.0745895
-0.0940131
-0.110289
-0.127156
0.107604
0.0722979
0.0403804
0.0109963
-0.0148926
-0.0386355
-0.0589924
-0.0778684
-0.0937339
-0.109787
0.117271
0.0830146
0.0519424
0.0233696
-0.00192346
-0.0250383
-0.0449607
-0.0632874
-0.0787366
-0.0940262
0.125823
0.0925015
0.062196
0.0343577
0.00962103
-0.0129123
-0.0324158
-0.0502237
-0.0653062
-0.0799129
0.133315
0.100823
0.0712068
0.0440297
0.0198032
-0.00219995
-0.0213254
-0.0386712
-0.05344
-0.0674389
0.139789
0.108029
0.079026
0.0524379
0.0286678
0.00713585
-0.011661
-0.0286045
-0.0431032
-0.0565718
0.145278
0.11416
0.0856938
0.0596212
0.0362506
0.0151286
-0.0033873
-0.0199872
-0.0342595
-0.0472843
0.14981
0.119251
0.0912447
0.0656128
0.0425839
0.0218103
0.00352883
-0.0127893
-0.0268836
-0.0395562
0.153394
0.123322
0.0957031
0.0704391
0.0476951
0.0272072
0.00911215
-0.00698894
-0.0209568
-0.0333701
0.156046
0.126376
0.0990849
0.0741255
0.051613
0.031348
0.0133906
-0.00255971
-0.0164548
-0.0287046
0.157755
0.12841
0.101396
0.0766887
0.0543647
0.0342684
0.0164077
0.000549925
-0.0133202
-0.0255019
0.15845
0.129341
0.102519
0.0779958
0.0558146
0.0358414
0.0180527
0.00225569
-0.0116035
-0.0237702
0.696286
0.698788
0.690973
0.673513
0.647415
0.61174
0.562293
0.49207
0.398689
0.330629
0.624506
0.619943
0.600104
0.572423
0.537744
0.492764
0.431881
0.34776
0.238314
0.157773
0.548971
0.535364
0.505663
0.46954
0.426727
0.372421
0.300435
0.203449
0.0794002
-0.0110452
0.462942
0.442663
0.407142
0.365241
0.315605
0.252825
0.170863
0.0629389
-0.0739404
-0.170079
0.372753
0.347238
0.307725
0.261498
0.206243
0.136236
0.045721
-0.0704889
-0.217509
-0.312597
0.283994
0.253695
0.210943
0.161193
0.101351
0.0255225
-0.0720623
-0.195084
-0.342023
-0.436319
0.199049
0.164505
0.119321
0.0669464
0.00370928
-0.0762173
-0.178316
-0.304717
-0.446968
-0.538608
0.119148
0.0812095
0.0346398
-0.0192521
-0.084458
-0.166686
-0.270265
-0.396105
-0.531232
-0.617348
0.0450336
0.00497674
-0.0415074
-0.0958668
-0.162071
-0.244356
-0.346531
-0.468098
-0.592962
-0.671708
-0.0239522
-0.062866
-0.108463
-0.162396
-0.227881
-0.30829
-0.406475
-0.520118
-0.631379
-0.702334
1.15097
1.17086
1.19361
1.2193
1.24786
1.27898
1.31177
1.34365
1.3712
1.40138
1.14474
1.1634
1.1852
1.20988
1.2372
1.26678
1.29767
1.32724
1.35197
1.37999
1.13199
1.1482
1.16813
1.19085
1.21572
1.24224
1.26937
1.29427
1.3136
1.33708
1.11216
1.12481
1.14202
1.16188
1.18314
1.20519
1.22679
1.24484
1.25621
1.273
1.08457
1.09266
1.10643
1.12261
1.13924
1.15549
1.16992
1.17908
1.18008
1.18826
1.04849
1.05109
1.06076
1.07257
1.08369
1.09301
1.09887
1.09734
1.08576
1.08371
1.00348
0.999939
1.00511
1.012
1.01676
1.01809
1.01409
1.00032
0.974209
0.960642
0.947799
0.937604
0.938635
0.940687
0.938659
0.931268
0.916482
0.889307
0.847137
0.820882
0.881869
0.865377
0.863033
0.859707
0.85004
0.833304
0.807178
0.76592
0.706843
0.666837
0.797653
0.783018
0.780223
0.770982
0.752877
0.726306
0.688383
0.632575
0.556203
0.501978
1.00118
1.00347
1.0064
1.00987
1.01354
1.01731
1.02131
1.02562
1.03034
1.03555
1.04133
1.04771
1.05478
1.06264
1.07143
1.08125
1.09226
1.10456
1.11834
1.13372
1.00113
1.00342
1.0063
1.00966
1.0132
1.01686
1.02074
1.02493
1.02952
1.03458
1.04017
1.04635
1.05318
1.06079
1.06927
1.07873
1.0893
1.10109
1.11424
1.12882
1.00111
1.00331
1.00601
1.00915
1.01246
1.0159
1.01955
1.0235
1.02782
1.03258
1.0378
1.04355
1.04992
1.05699
1.06483
1.07355
1.08324
1.09397
1.10581
1.11873
1.00105
1.00308
1.00551
1.00831
1.0113
1.0144
1.0177
1.02126
1.02515
1.02944
1.03409
1.0392
1.04484
1.05106
1.05792
1.06547
1.07376
1.08281
1.09259
1.10289
1.00094
1.00273
1.00477
1.00713
1.00965
1.0123
1.0151
1.01813
1.02144
1.02503
1.0289
1.03312
1.03775
1.04279
1.04826
1.05416
1.06047
1.06713
1.074
1.08057
1.00076
1.00221
1.00376
1.00554
1.00747
1.00951
1.01168
1.01402
1.01659
1.01924
1.02208
1.02515
1.02845
1.03194
1.03558
1.03928
1.04298
1.04643
1.04945
1.05101
1.0005
1.00148
1.00242
1.00349
1.0047
1.00601
1.00741
1.00893
1.01041
1.01193
1.01354
1.01519
1.01682
1.01833
1.01963
1.02051
1.02085
1.02012
1.01824
1.0135
1.00014
1.00048
1.00071
1.00096
1.00132
1.00176
1.00222
1.00258
1.00288
1.00312
1.00325
1.00316
1.00277
1.00187
1.00036
0.997787
0.99406
0.988157
0.980214
0.967195
0.999682
0.999185
0.998574
0.997926
0.99731
0.996689
0.995984
0.99512
0.994076
0.992775
0.991141
0.988994
0.986222
0.982468
0.977644
0.970982
0.962652
0.950699
0.936253
0.912849
0.999267
0.997654
0.996029
0.994441
0.992796
0.991014
0.989036
0.986782
0.984187
0.981115
0.977465
0.97295
0.967445
0.960326
0.951563
0.939635
0.925124
0.903935
0.879543
0.840013
0.998708
0.996173
0.993668
0.99109
0.988321
0.985276
0.981905
0.97811
0.973796
0.96877
0.962894
0.955792
0.947293
0.936622
0.923663
0.906665
0.885848
0.856559
0.819482
0.760284
0.998262
0.994777
0.991336
0.987749
0.98386
0.97959
0.974896
0.969664
0.963786
0.957025
0.949232
0.939982
0.929109
0.915777
0.899878
0.879686
0.85533
0.823327
0.784799
0.73534
0.997818
0.993394
0.989018
0.984404
0.979376
0.973875
0.967874
0.961246
0.95387
0.945484
0.935939
0.924795
0.911897
0.89644
0.878339
0.85612
0.830017
0.797654
0.760261
0.714545
0.997291
0.992045
0.986818
0.98115
0.97493
0.968165
0.960848
0.952841
0.944004
0.934066
0.922876
0.910003
0.895312
0.878056
0.858213
0.834519
0.807367
0.774746
0.738029
0.693789
0.996763
0.990763
0.984767
0.978045
0.970591
0.962533
0.953903
0.944547
0.93431
0.922908
0.910201
0.895772
0.879523
0.860762
0.839545
0.814737
0.786862
0.754028
0.717859
0.675047
0.996239
0.989532
0.982864
0.975126
0.966424
0.957058
0.947129
0.936471
0.924908
0.912145
0.898056
0.882248
0.864659
0.844652
0.822348
0.796707
0.768344
0.735512
0.699959
0.658627
0.995694
0.988353
0.981145
0.97245
0.962497
0.951815
0.940608
0.928704
0.915897
0.90188
0.886542
0.869516
0.850777
0.829741
0.806573
0.780332
0.751674
0.71903
0.684111
0.64414
0.99513
0.987245
0.979655
0.970074
0.958872
0.946867
0.934406
0.921316
0.907353
0.892191
0.875727
0.857632
0.837906
0.816024
0.792173
0.765516
0.736703
0.704351
0.670036
0.631295
0.994549
0.986226
0.978429
0.968041
0.955591
0.942258
0.928574
0.914367
0.899338
0.883136
0.865666
0.846635
0.826066
0.803491
0.779102
0.752167
0.723294
0.691287
0.657544
0.619933
0.993957
0.985311
0.977492
0.966375
0.952673
0.938012
0.923144
0.907898
0.891898
0.874761
0.856395
0.83655
0.815261
0.792122
0.767311
0.740201
0.711334
0.679699
0.6465
0.609929
0.993361
0.984533
0.976875
0.965079
0.950107
0.934126
0.918135
0.90194
0.885066
0.867095
0.847937
0.82739
0.805492
0.781896
0.756757
0.729546
0.700732
0.669479
0.636792
0.601174
0.992778
0.983958
0.976611
0.96412
0.947839
0.930573
0.913553
0.896513
0.878862
0.860154
0.840306
0.819159
0.79675
0.772787
0.747395
0.72014
0.69141
0.660534
0.628323
0.593569
0.992217
0.983666
0.976686
0.963386
0.94576
0.927306
0.909395
0.891627
0.873295
0.853946
0.833506
0.811856
0.789025
0.76477
0.739185
0.711927
0.6833
0.652784
0.621007
0.587028
0.991691
0.983656
0.976894
0.962599
0.943696
0.924276
0.905662
0.887279
0.868357
0.848467
0.82754
0.80548
0.782303
0.75782
0.732092
0.704858
0.676342
0.64616
0.614774
0.581478
0.991287
0.983643
0.976623
0.961272
0.941484
0.921509
0.902386
0.883466
0.864039
0.843719
0.822412
0.800028
0.776576
0.751915
0.726085
0.698891
0.670486
0.640605
0.609562
0.576857
0.990436
0.981828
0.973885
0.958317
0.938914
0.919063
0.899584
0.880157
0.860317
0.839694
0.818119
0.795493
0.771826
0.747033
0.721132
0.693988
0.665689
0.636069
0.605318
0.573109
0.991345
0.977797
0.966862
0.953019
0.936055
0.917104
0.897343
0.877424
0.857264
0.836447
0.814689
0.791882
0.768052
0.743162
0.717215
0.69012
0.661914
0.632511
0.602002
0.570192
0.993914
0.972929
0.956613
0.94624
0.933221
0.915515
0.895598
0.875347
0.854988
0.834037
0.812135
0.789191
0.76524
0.740285
0.714307
0.687255
0.659126
0.629895
0.599577
0.568076
0.997363
0.978957
0.960593
0.946752
0.93185
0.913827
0.894035
0.873897
0.853516
0.832452
0.810418
0.787372
0.76335
0.73836
0.71237
0.685351
0.657279
0.628173
0.598004
0.56674
0.988804
0.984688
0.979817
0.961233
0.937064
0.914088
0.893365
0.873431
0.853085
0.831855
0.809656
0.786513
0.762438
0.737422
0.711419
0.684413
0.656367
0.627326
0.597244
0.566149
0.689369
0.614023
0.541175
0.461935
0.377805
0.294943
0.215821
0.140677
0.0700625
0.0056452
0.680115
0.602233
0.526118
0.451873
0.374151
0.296657
0.222927
0.153167
0.0881316
0.0291004
0.664162
0.590042
0.513823
0.443781
0.372843
0.300826
0.231687
0.166575
0.106003
0.0501003
0.647207
0.578706
0.504383
0.436887
0.371333
0.304555
0.239576
0.178316
0.121375
0.0685951
0.63129
0.567923
0.496737
0.431402
0.370028
0.30809
0.247036
0.189067
0.135235
0.0851476
0.616798
0.557774
0.490323
0.427263
0.369097
0.311318
0.253927
0.1989
0.147706
0.0999658
0.603731
0.548384
0.48478
0.42419
0.368607
0.314266
0.260204
0.207868
0.158952
0.113254
0.592046
0.539849
0.479937
0.421921
0.368547
0.317007
0.265872
0.216004
0.169099
0.12519
0.581676
0.532192
0.475688
0.420234
0.36884
0.31959
0.270963
0.223333
0.178237
0.135911
0.572534
0.525387
0.471961
0.418967
0.369386
0.322033
0.275524
0.229887
0.186426
0.145515
0.564529
0.519388
0.468697
0.417999
0.370086
0.324333
0.279593
0.235703
0.193714
0.154073
0.557575
0.514143
0.465845
0.417242
0.370856
0.326466
0.283198
0.240814
0.200139
0.16164
0.551591
0.509597
0.463363
0.416627
0.37162
0.328399
0.286353
0.245249
0.205733
0.168254
0.546509
0.505702
0.461211
0.416103
0.372317
0.330095
0.28906
0.249032
0.210523
0.173947
0.54227
0.502414
0.459359
0.415628
0.372894
0.331515
0.29131
0.252176
0.214531
0.178748
0.53882
0.499696
0.457782
0.415173
0.373312
0.332626
0.29309
0.254683
0.217764
0.182677
0.536116
0.497509
0.456453
0.414713
0.373541
0.333404
0.294394
0.256564
0.220224
0.185696
0.534121
0.495818
0.455334
0.4142
0.37353
0.333808
0.295206
0.257834
0.221973
0.187908
0.532839
0.494635
0.454413
0.413578
0.373183
0.33373
0.295429
0.258417
0.222959
0.189318
0.532323
0.494129
0.453916
0.413062
0.372661
0.33326
0.295087
0.25827
0.223039
0.189654
)
;

boundaryField
{
    bottom
    {
        type            symmetryPlane;
    }
    right
    {
        type            fixedValue;
        value           uniform 0;
    }
    top
    {
        type            symmetryPlane;
    }
    left
    {
        type            fixedValue;
        value           uniform 1;
    }
    cylinder
    {
        type            zeroGradient;
    }
    defaultFaces
    {
        type            empty;
    }
}


// ************************************************************************* //
