/*--------------------------------*- C++ -*----------------------------------*\
| =========                 |                                                 |
| \\      /  F ield         | OpenFOAM: The Open Source CFD Toolbox           |
|  \\    /   O peration     | Version:  4.1                                   |
|   \\  /    A nd           | Web:      www.OpenFOAM.org                      |
|    \\/     M anipulation  |                                                 |
\*---------------------------------------------------------------------------*/
FoamFile
{
    version     2.0;
    format      ascii;
    class       surfaceScalarField;
    location    "7.8";
    object      phi;
}
// * * * * * * * * * * * * * * * * * * * * * * * * * * * * * * * * * * * * * //

dimensions      [0 3 -1 0 0 0 0];

internalField   nonuniform List<scalar> 
3890
(
0.00031098
0.0025018
-0.00281278
0.00249724
0.000617263
-0.00280352
0.00744312
-0.00595645
0.00101057
0.0155596
-0.0157924
0.00767599
0.026489
-0.0272131
0.0162836
0.0392345
-0.0385331
0.0257876
0.0525684
-0.0485095
0.0351756
0.0655106
-0.0566326
0.0436903
0.0772227
-0.0627697
0.0510577
-0.0667699
0.0572305
0.086762
0.000612076
0.00188972
0.00388548
-0.00265614
0.0107316
-0.0128026
0.0210229
-0.0260837
0.0335227
-0.0397128
0.0466
-0.0516105
0.0589343
-0.0608437
0.0697269
-0.0674252
0.0786136
-0.0716564
-0.0743492
0.086193
0.00104283
0.000846892
0.00567314
-0.00728645
0.0144741
-0.0216036
0.0262722
-0.0378819
0.0389641
-0.0524047
0.0507906
-0.063437
0.0608359
-0.070889
0.0688967
-0.075486
0.0753504
-0.0781102
-0.0796884
0.0806896
0.00159884
-0.000751945
0.00774025
-0.0134279
0.0180957
-0.031959
0.0302298
-0.050016
0.041725
-0.0638999
0.0513183
-0.0730303
0.058807
-0.0783778
0.0645908
-0.0812697
0.069257
-0.0827764
-0.0836838
0.0732524
0.00226618
-0.00301812
0.00984259
-0.0210043
0.0209043
-0.0430208
0.0321636
-0.0612753
0.0416291
-0.0733654
0.0488378
-0.080239
0.0541867
-0.0837266
0.058313
-0.085396
0.0617844
-0.0862478
-0.0868959
0.0649965
0.00301094
-0.00602906
0.011635
-0.0296283
0.0223898
-0.0537756
0.031973
-0.0708585
0.0392253
-0.0806176
0.0443664
-0.0853801
0.048083
-0.0874433
0.0510213
-0.0883343
0.0536352
-0.0888618
-0.0893599
0.0560992
0.00375159
-0.00978065
0.0127894
-0.0386661
0.0224235
-0.0634097
0.0300247
-0.0784598
0.0352475
-0.0858403
0.0387209
-0.0888536
0.0411966
-0.0899189
0.0432189
-0.0903566
0.0450797
-0.0907227
-0.0911756
0.0468955
0.00436802
-0.0141487
0.0131172
-0.0474153
0.0211783
-0.0714708
0.0268219
-0.0841033
0.0303102
-0.0893286
0.0324547
-0.0909981
0.0339416
-0.0914059
0.0351741
-0.0915891
0.0363343
-0.0918828
-0.0923075
0.0374661
0.00474434
-0.018893
0.0126189
-0.0552898
0.0189556
-0.0778075
0.0228198
-0.0879675
0.0248606
-0.0913695
0.0259183
-0.0920557
0.0265574
-0.092045
0.027056
-0.0920877
0.0275073
-0.0923341
-0.0927342
0.027934
0.00481458
-0.0237076
0.0114612
-0.0619365
0.0160774
-0.0824236
0.0183776
-0.0902677
0.0192042
-0.0921962
0.0193306
-0.0921821
0.0191926
-0.091907
0.0189707
-0.0918658
0.0187147
-0.0920781
0.0184265
-0.0924459
-0.000974534
0.000974534
-0.00283237
0.00185784
-0.00509785
0.00226548
-0.00753741
0.00243956
-0.0100315
0.00249405
-0.0125195
0.00248805
-0.0149737
0.0024542
-0.017387
0.00241324
-0.0197729
0.00238589
0.00240347
-0.0221763
-0.000854565
0.0018291
-0.00250095
0.00350422
-0.00450636
0.00427089
-0.00663557
0.00456877
-0.0087574
0.00461588
-0.010795
0.00452567
-0.0127019
0.00436112
-0.0144537
0.00416496
-0.016044
0.00397626
0.00387267
-0.0175132
-0.000645059
0.00247416
-0.00192182
0.00478098
-0.00345904
0.00580811
-0.00503043
0.00614016
-0.00649201
0.00607746
-0.00774376
0.00577741
-0.00870909
0.00532646
-0.00933339
0.00478926
-0.00958204
0.00422492
0.00369616
-0.00940553
-0.000402915
0.00287707
-0.00122722
0.00560529
-0.00217552
0.00675641
-0.00303792
0.00700255
-0.00366364
0.00670318
-0.00393518
0.00604896
-0.00374745
0.00513873
-0.0029977
0.0040395
-0.00159967
0.00282689
0.00168615
0.000410332
-0.000185565
0.00306264
-0.000560689
0.00598041
-0.000888273
0.00708399
-0.000976525
0.00709081
-0.000668838
0.00639549
0.000167465
0.00521265
0.0016585
0.00364769
0.00392663
0.00177137
0.00707176
-0.000318231
-0.00267067
0.0114286
-3.52295e-05
0.00309786
-2.25651e-05
0.00596775
0.000234478
0.00682695
0.000942798
0.00638249
0.00227814
0.00506015
0.00440278
0.00308801
0.00746494
0.000585529
0.0116101
-0.00237378
0.0168255
-0.00553367
-0.00965222
0.0238071
3.4957e-05
0.00306291
0.000339999
0.0056627
0.00115693
0.00601002
0.00271932
0.0048201
0.00526087
0.0025186
0.00899635
-0.000647477
0.014095
-0.00451309
0.0206713
-0.00895005
0.0284791
-0.0133415
-0.019532
0.0383589
5.03924e-05
0.00301251
0.000616062
0.00509703
0.00203631
0.00458977
0.00463766
0.00221874
0.00873367
-0.0015774
0.0145664
-0.00648018
0.0222254
-0.0121721
0.0316366
-0.0183613
0.0424117
-0.0241167
-0.0319329
0.0548126
6.41133e-05
0.0029484
0.000955358
0.00420579
0.00317871
0.00236641
0.00718742
-0.00178996
0.0133252
-0.00771521
0.021697
-0.014852
0.0321158
-0.0225909
0.0440943
-0.0303397
0.0573001
-0.0373225
-0.0452114
0.0705786
0.000135624
0.00153789
0.00491487
0.0108009
0.0193693
0.0303049
0.0428897
0.0562403
0.0699755
0.0819945
-0.023504
0.00132764
-0.0247047
0.00120075
-0.0257483
0.00104357
-0.0266233
0.000875001
-0.0273169
0.000693642
-0.0278156
0.000498632
-0.0281047
0.000289192
-0.0281637
5.89285e-05
-0.0280057
-0.000157959
-0.0276182
-0.000387552
-0.0269856
-0.000632545
-0.026095
-0.000890657
-0.024933
-0.00116194
-0.023485
-0.00144805
-0.0217318
-0.00175319
-0.0196462
-0.00208558
-0.0171958
-0.00245046
-0.0143747
-0.00282107
-0.0112218
-0.00315292
-0.00355465
-0.0185428
0.00235726
-0.0194715
0.00212944
-0.0202624
0.00183443
-0.0209031
0.0015157
-0.0213798
0.00117038
-0.0216789
0.00079772
-0.0217862
0.0003965
-0.0216832
-4.40746e-05
-0.0213879
-0.000453309
-0.0208731
-0.000902298
-0.0201296
-0.00137602
-0.0191489
-0.00187143
-0.0179232
-0.00238759
-0.016446
-0.00292532
-0.0147113
-0.00348788
-0.0127133
-0.00408351
-0.0104296
-0.00473416
-0.00783721
-0.00541347
-0.00494094
-0.0060492
-0.0064509
-0.00992862
0.00288035
-0.0103523
0.00255314
-0.0106892
0.00217127
-0.0109106
0.00173713
-0.0109997
0.00125952
-0.0109421
0.0007401
-0.0107095
0.000163901
-0.0103478
-0.000405749
-0.00979468
-0.00100647
-0.00905128
-0.0016457
-0.00811018
-0.00231711
-0.00696583
-0.00301578
-0.00561543
-0.003738
-0.00405955
-0.00448119
-0.0023025
-0.00524494
-0.000355637
-0.00603037
0.00174459
-0.00683439
0.00401796
-0.00768683
0.00646879
-0.00850003
-0.00921876
0.000736391
0.00255429
0.000907363
0.00238217
0.00113669
0.00194195
0.00145274
0.00142108
0.00186295
0.000849316
0.00239159
0.000211459
0.00299793
-0.000442436
0.00373475
-0.00114258
0.00461967
-0.00189139
0.00565751
-0.00268354
0.0068536
-0.0035132
0.00821089
-0.00437308
0.009729
-0.0052561
0.011402
-0.00615423
0.013218
-0.00706091
0.0151567
-0.00796909
0.0171946
-0.00887226
0.0192899
-0.00978211
0.0214213
-0.0106315
-0.0115607
0.0122625
0.00172038
0.013093
0.00155168
0.0139228
0.00111209
0.0148118
0.00053211
0.015772
-0.000110914
0.0167569
-0.000773417
0.017826
-0.00151153
0.018993
-0.00230954
0.0202656
-0.00316398
0.0216497
-0.00406769
0.023149
-0.00501251
0.0247633
-0.00598731
0.026489
-0.00698183
0.028316
-0.00798128
0.0302305
-0.00897538
0.0322098
-0.00994839
0.0342241
-0.0108865
0.0362358
-0.0117939
0.0381925
-0.0125882
-0.0135083
0.0250912
0.000436219
0.0263914
0.000251497
0.0277162
-0.000212657
0.0290672
-0.000818975
0.0304429
-0.0014866
0.0318765
-0.00220703
0.0333665
-0.00300147
0.0349242
-0.0038673
0.0365555
-0.00479524
0.038262
-0.00577414
0.0400437
-0.00679423
0.0418951
-0.00783877
0.0438092
-0.0088959
0.0457698
-0.00994189
0.0477621
-0.0109677
0.0497576
-0.0119439
0.0517332
-0.0128621
0.0536468
-0.0137075
0.0554659
-0.0144074
-0.0151866
0.0398822
-0.00108708
0.0413798
-0.00124602
0.0429009
-0.00173383
0.0444922
-0.00241026
0.0461309
-0.00312531
0.0478238
-0.00389989
0.0495755
-0.00475315
0.0513841
-0.00567592
0.0532463
-0.0066574
0.055156
-0.0076839
0.0571067
-0.00874491
0.0590849
-0.00981698
0.0610788
-0.0108898
0.0630659
-0.0119289
0.0650318
-0.0129336
0.0669426
-0.0138548
0.0687872
-0.0147067
0.0705152
-0.0154354
0.0721378
-0.01603
-0.0165995
0.0561904
-0.00246485
0.0575928
-0.00264839
0.0591164
-0.00325744
0.0607063
-0.00400016
0.0623688
-0.00478787
0.0641092
-0.00564023
0.0659156
-0.00655961
0.0677723
-0.00753255
0.0696664
-0.00855152
0.0715834
-0.00960094
0.073509
-0.0106705
0.0754233
-0.0117313
0.0773108
-0.0127772
0.0791466
-0.0137648
0.0809179
-0.0147049
0.0825926
-0.0155295
0.0841697
-0.0162838
0.0855996
-0.0168652
0.0869269
-0.0173574
-0.0177134
0.0716181
-0.00350434
0.0729495
-0.0039798
0.0743872
-0.00469508
0.0758852
-0.00549816
0.0774632
-0.00636591
0.0791107
-0.00728771
0.0808028
-0.00825172
0.0825192
-0.00924895
0.0842444
-0.0102767
0.0859618
-0.0113184
0.087656
-0.0123646
0.0893091
-0.0133845
0.0909071
-0.0143751
0.0924317
-0.0152894
0.0938733
-0.0161464
0.095212
-0.0168682
0.0964497
-0.0175215
0.097554
-0.0179694
0.0985649
-0.0183683
-0.0185512
0.0834133
-0.00492308
0.0848744
-0.00544093
0.086296
-0.00611675
0.0877145
-0.00691662
0.0891434
-0.00779477
0.0905809
-0.00872522
0.0920212
-0.00969204
0.093456
-0.0106838
0.0948766
-0.0116973
0.0962736
-0.0127154
0.0976385
-0.0137295
0.0989623
-0.0147083
0.100236
-0.0156491
0.101453
-0.0165063
0.102605
-0.0172986
0.10369
-0.0179527
0.104701
-0.0185331
0.10564
-0.0189081
0.106506
-0.0192337
-0.0192648
0.112535
-0.00412713
-0.113331
0.112079
-0.00498475
0.111761
-0.00579896
0.111525
-0.00668038
0.111346
-0.00761588
0.111197
-0.00857634
0.11105
-0.00954507
0.110879
-0.0105126
0.110661
-0.0114788
0.110375
-0.0124299
0.110007
-0.0133615
0.109546
-0.0142467
0.108983
-0.0150868
0.108319
-0.0158416
0.107551
-0.0165311
0.10669
-0.0170914
0.105737
-0.0175803
0.104715
-0.0178866
0.103621
-0.0181389
-0.0181083
0.118298
-0.00370513
-0.11872
0.117944
-0.00463095
0.117658
-0.00551229
0.117379
-0.00640178
0.117081
-0.00731816
0.116754
-0.00824854
0.116388
-0.00917941
0.115974
-0.0100989
0.115501
-0.0110053
0.114957
-0.0118863
0.114336
-0.0127399
0.113632
-0.0135432
0.112844
-0.0142987
0.111975
-0.0149722
0.111026
-0.0155821
0.110008
-0.0160737
0.108925
-0.016498
0.107796
-0.0167576
0.106626
-0.0169687
-0.0169577
0.121463
-0.00329044
-0.121878
0.121111
-0.00427904
0.120799
-0.00519952
0.120483
-0.00608668
0.120136
-0.00697038
0.119742
-0.00785476
0.119296
-0.00873371
0.118793
-0.00959561
0.118225
-0.0104376
0.117587
-0.0112484
0.116875
-0.0120275
0.116088
-0.0127558
0.115225
-0.0134365
0.114294
-0.0140406
0.113296
-0.014584
0.112243
-0.0150213
0.11114
-0.0153949
0.110009
-0.0156265
0.108853
-0.0158123
-0.0158051
0.123297
-0.00298073
-0.123606
0.122981
-0.00396382
0.122668
-0.00488594
0.122338
-0.00575698
0.121971
-0.0066031
0.121553
-0.00743678
0.121078
-0.00825915
0.120544
-0.00906108
0.119945
-0.00983926
0.11928
-0.0105834
0.118546
-0.0112935
0.117744
-0.0119538
0.116876
-0.0125679
0.115946
-0.0131113
0.11496
-0.0135979
0.113929
-0.0139898
0.112857
-0.0143226
0.111763
-0.0145325
0.110647
-0.0146972
-0.0147
0.124532
-0.00275901
-0.124754
0.124264
-0.00369522
0.123969
-0.00459127
0.123645
-0.00543284
0.123278
-0.00623661
0.122859
-0.0070175
0.122382
-0.00778194
0.121845
-0.00852387
0.121246
-0.00924036
0.120584
-0.00992166
0.119859
-0.0105683
0.119072
-0.0111668
0.118225
-0.0117212
0.117324
-0.0122104
0.116374
-0.0126474
0.115383
-0.0129994
0.114358
-0.0132977
0.113314
-0.013488
0.112253
-0.0136358
-0.0136462
0.125638
-0.00258587
-0.125811
0.125407
-0.00346393
0.125132
-0.00431657
0.124816
-0.00511708
0.124454
-0.00587413
0.124038
-0.00660175
0.123565
-0.00730899
0.123034
-0.00799235
0.122443
-0.00864974
0.121793
-0.00927204
0.121085
-0.00986004
0.12032
-0.0104019
0.119501
-0.0109023
0.118634
-0.0113427
0.117722
-0.0117353
0.116774
-0.0120514
0.115795
-0.0123189
0.114798
-0.0124912
0.113786
-0.0126241
-0.0126382
0.126821
-0.0024421
-0.126964
0.126613
-0.003256
0.12635
-0.00405367
0.126037
-0.00480464
0.125675
-0.00551165
0.125259
-0.00618614
0.124788
-0.00683771
0.12426
-0.00746454
0.123676
-0.00806554
0.123036
-0.00863233
0.122342
-0.00916593
0.121596
-0.00965574
0.1208
-0.0101068
0.11996
-0.0105026
0.11908
-0.0108551
0.118167
-0.0111384
0.117226
-0.0113783
0.116269
-0.0115332
0.115297
-0.0116527
-0.0116678
0.128118
-0.00231333
-0.128247
0.12792
-0.00305768
0.12766
-0.00379381
0.127345
-0.00449007
0.126978
-0.00514472
0.126559
-0.00576619
0.126084
-0.0063635
0.125556
-0.00693585
0.124973
-0.00748297
0.124338
-0.0079973
0.123652
-0.00848006
0.122918
-0.00892164
0.122139
-0.00932731
0.121318
-0.00968222
0.120461
-0.00999798
0.119574
-0.0102513
0.118661
-0.0104658
0.117733
-0.0106043
0.116791
-0.0107113
-0.0107257
0.129496
-0.00218518
-0.129624
0.129297
-0.00285896
0.129034
-0.00353086
0.128713
-0.00416956
0.128339
-0.0047702
0.127911
-0.00533857
0.127431
-0.00588272
0.126897
-0.00640232
0.126312
-0.00689774
0.125677
-0.00736218
0.124994
-0.00779706
0.124266
-0.00819358
0.123495
-0.00855712
0.122687
-0.00887421
0.121846
-0.00915614
0.120976
-0.0093816
0.120083
-0.0095728
0.119174
-0.00969575
0.118254
-0.00979123
-0.00980387
0.130901
-0.00204879
-0.131037
0.130696
-0.00265377
0.130426
-0.00326094
0.130097
-0.00384055
0.129713
-0.00438607
0.129275
-0.00490126
0.128786
-0.00539307
0.128245
-0.00586136
0.127654
-0.00630691
0.127015
-0.0067236
0.126331
-0.00711299
0.125605
-0.00746706
0.124839
-0.00779111
0.124038
-0.00807295
0.123205
-0.0083234
0.122346
-0.00852301
0.121466
-0.00869256
0.120571
-0.0088009
0.119665
-0.00888555
-0.00889599
0.132287
-0.00190058
-0.132435
0.132071
-0.00243867
0.131792
-0.0029814
0.131453
-0.00350133
0.131058
-0.00399117
0.13061
-0.00445321
0.13011
-0.00489338
0.12956
-0.00531156
0.128962
-0.00570874
0.128318
-0.00607945
0.12763
-0.00642531
0.126902
-0.00673903
0.126137
-0.00702576
0.125338
-0.00727445
0.12451
-0.00749536
0.123658
-0.0076708
0.122786
-0.00782007
0.121899
-0.00791473
0.121003
-0.00798919
-0.00799736
0.133614
-0.0017389
-0.133775
0.133387
-0.00221164
0.133096
-0.00269064
0.132745
-0.0031509
0.132339
-0.00358497
0.13188
-0.00399406
0.13137
-0.00438323
0.130811
-0.00475232
0.130204
-0.00510239
0.129554
-0.00542858
0.128861
-0.00573252
0.128129
-0.00600762
0.127362
-0.00625877
0.126564
-0.00647604
0.125738
-0.00666902
0.124889
-0.00682171
0.12402
-0.00695185
0.123139
-0.00703368
0.122249
-0.00709853
-0.00710457
0.134852
-0.00156271
-0.135028
0.134612
-0.00197176
0.13431
-0.00238796
0.133948
-0.00278896
0.13353
-0.00316745
0.13306
-0.00352396
0.13254
-0.00386274
0.131971
-0.00418362
0.131356
-0.00448766
0.130698
-0.00477055
0.129999
-0.00503387
0.129264
-0.00527177
0.128494
-0.00548877
0.127694
-0.00567606
0.126867
-0.00584239
0.126019
-0.00597353
0.125153
-0.0060855
0.124274
-0.00615528
0.123387
-0.006211
-0.00621519
0.135979
-0.00137187
-0.136169
0.135726
-0.00171901
0.135411
-0.00207348
0.135038
-0.00241577
0.13461
-0.00273905
0.134129
-0.00304342
0.133599
-0.00333241
0.133021
-0.00360586
0.132398
-0.00386476
0.131733
-0.00410538
0.131028
-0.00432916
0.130288
-0.00453103
0.129514
-0.00471503
0.128711
-0.00487351
0.127883
-0.00501426
0.127034
-0.00512485
0.126168
-0.00521944
0.125291
-0.00527786
0.124405
-0.00532487
-0.00532754
0.136975
-0.00116712
-0.13718
0.13671
-0.00145405
0.136384
-0.00174785
0.136
-0.00203202
0.135562
-0.00230054
0.135072
-0.00255322
0.134532
-0.00279299
0.133946
-0.0030197
0.133316
-0.00323422
0.132644
-0.00343342
0.131933
-0.00361855
0.131187
-0.00378534
0.13041
-0.00393728
0.129604
-0.00406792
0.128774
-0.00418393
0.127924
-0.00427483
0.127057
-0.00435268
0.126179
-0.00440036
0.125293
-0.004439
-0.00444049
0.137827
-0.000949795
-0.138045
0.137551
-0.00117802
0.137216
-0.0014121
0.136822
-0.00163874
0.136375
-0.00185291
0.135876
-0.00205437
0.135328
-0.00224543
0.134735
-0.00242601
0.134097
-0.00259678
0.133419
-0.00275527
0.132703
-0.00290246
0.131952
-0.00303497
0.131171
-0.00315559
0.130362
-0.00325918
0.129529
-0.00335113
0.128677
-0.00342303
0.127809
-0.00348465
0.126931
-0.00352213
0.126045
-0.00355268
-0.00355335
0.138525
-0.000721593
-0.138754
0.13824
-0.000892366
0.137895
-0.00106754
0.137494
-0.00123715
0.137038
-0.00139737
0.136532
-0.00154804
0.135977
-0.00169085
0.135377
-0.00182581
0.134734
-0.00195336
0.13405
-0.00207173
0.133329
-0.00218155
0.132575
-0.00228042
0.131789
-0.00237027
0.130978
-0.00244748
0.130142
-0.00251588
0.129289
-0.00256938
0.128419
-0.00261514
0.12754
-0.00264288
0.126653
-0.00266557
-0.00266572
0.13906
-0.000484671
-0.139297
0.138766
-0.000598946
0.138415
-0.000715822
0.138006
-0.00082877
0.137544
-0.000935357
0.137032
-0.00103561
0.136471
-0.00113056
0.135866
-0.00122035
0.135218
-0.0013051
0.13453
-0.00138382
0.133805
-0.00145669
0.133047
-0.00152243
0.132259
-0.00158193
0.131444
-0.0016333
0.130607
-0.00167847
0.129752
-0.0017141
0.128881
-0.00174421
0.128001
-0.00176266
0.127113
-0.00177756
-0.00177753
0.139421
-0.000241914
-0.139664
0.139122
-0.000300404
0.138766
-0.000359177
0.138352
-0.000415625
0.137886
-0.000468758
0.137369
-0.000518829
0.136805
-0.000566199
0.136195
-0.000611145
0.135544
-0.000653369
0.134853
-0.00069282
0.134125
-0.00072897
0.133365
-0.000762024
0.132574
-0.000791331
0.131758
-0.000817414
0.130919
-0.000839287
0.130063
-0.000857868
0.12919
-0.000871771
0.12831
-0.000882351
0.12742
-0.000888033
-0.00088942
0.139601
-0.139843
0.139301
0.138942
0.138526
0.138057
0.137538
0.136972
0.136361
0.135708
0.135015
0.134286
0.133524
0.132733
0.131915
0.131076
0.130218
0.129346
0.128464
0.127576
0.0946559
0.0167551
-0.0929845
0.0965582
0.0260317
0.098721
0.0353034
0.101117
0.0444999
0.103789
0.0534265
0.106711
0.0620751
0.109551
0.0704118
0.112758
0.0774825
0.113378
0.0855732
0.0868089
0.095247
0.015223
-0.0937149
0.097059
0.0242197
0.0991775
0.0331849
0.101624
0.042053
0.104287
0.0507639
0.10747
0.0588921
0.110456
0.0674254
0.114288
0.073651
0.117324
0.0825375
0.0854123
0.0960305
0.0138491
-0.0946566
0.0977388
0.0225114
0.0997436
0.0311801
0.10218
0.0396168
0.104785
0.0481588
0.107992
0.0556849
0.111213
0.0642043
0.114869
0.0699951
0.118994
0.0784127
0.0825282
0.09694
0.0126095
-0.0957003
0.0985609
0.0208904
0.100472
0.0292693
0.102845
0.0372433
0.105451
0.0455526
0.108525
0.0526114
0.111958
0.0607716
0.115429
0.0665233
0.119796
0.0740461
0.0787181
0.0979329
0.0114729
-0.0967963
0.0994762
0.0193471
0.101346
0.0273996
0.103642
0.0349469
0.106296
0.0428985
0.109253
0.0496553
0.112775
0.057249
0.116277
0.0630212
0.120558
0.0697653
0.0745221
0.0989731
0.0104135
-0.0979137
0.100445
0.0178754
0.102305
0.0255393
0.104547
0.0327052
0.107245
0.0402008
0.110181
0.0467188
0.113705
0.0537255
0.117321
0.059405
0.121492
0.0655941
0.0702029
0.100028
0.00941621
-0.0990308
0.10144
0.0164635
0.103295
0.0236843
0.105518
0.0304818
0.108236
0.0374829
0.111221
0.0437337
0.114728
0.0502192
0.118445
0.0556874
0.12259
0.0614491
0.0658286
0.101071
0.00847517
-0.10013
0.102439
0.015096
0.104283
0.0218403
0.106515
0.0282495
0.109242
0.0347557
0.112296
0.0406804
0.115813
0.0467019
0.119618
0.0518828
0.123811
0.0572555
0.061393
0.102084
0.0075874
-0.101196
0.103421
0.0137596
0.105251
0.0200098
0.107504
0.0259964
0.110246
0.0320141
0.113366
0.0375604
0.11693
0.0431379
0.120822
0.0479907
0.125102
0.0529753
0.0568711
0.103053
0.00674915
-0.102215
0.104366
0.0124461
0.106186
0.0181897
0.108463
0.02372
0.111229
0.0292476
0.114411
0.0343781
0.118042
0.0395071
0.122024
0.0440086
0.126406
0.0485939
0.0522394
0.103966
0.00595522
-0.103172
0.105261
0.0111512
0.107075
0.0163754
0.109374
0.0214213
0.112173
0.0264488
0.115414
0.0311369
0.119117
0.0358043
0.123191
0.0399349
0.127678
0.0441063
0.0474829
0.104814
0.00519984
-0.104059
0.106093
0.00987211
0.107906
0.0145627
0.110226
0.0191016
0.113059
0.0236151
0.116357
0.0278397
0.12013
0.0320305
0.124296
0.0357696
0.128889
0.0395127
0.0425967
0.105589
0.0044775
-0.104866
0.106854
0.00860682
0.108668
0.0127488
0.111007
0.016762
0.113875
0.0207473
0.117225
0.0244897
0.121066
0.0281894
0.12532
0.0315157
0.130015
0.0348177
0.0375837
0.106283
0.00378332
-0.105589
0.107536
0.00735334
0.109353
0.0109326
0.11171
0.0144041
0.11461
0.0178474
0.11801
0.0210905
0.121913
0.0242862
0.126249
0.0271792
0.131038
0.0300293
0.0324519
0.106891
0.00311298
-0.106221
0.108135
0.00610984
0.109954
0.00911355
0.112328
0.0120295
0.115257
0.0149189
0.1187
0.0176471
0.122659
0.0203276
0.127069
0.0227688
0.131941
0.0251576
0.0272136
0.10741
0.00246326
-0.106761
0.108645
0.00487463
0.110467
0.00729199
0.112856
0.00964046
0.115809
0.0119655
0.119291
0.0141654
0.123297
0.0163215
0.127771
0.0182947
0.132715
0.0202144
0.0218835
0.107837
0.00182847
-0.107202
0.109065
0.00364691
0.110888
0.00546878
0.113288
0.00723976
0.116262
0.0089918
0.119775
0.0106523
0.12382
0.0122763
0.128347
0.0137681
0.133349
0.0152129
0.0164784
0.108166
0.00120845
-0.107546
0.109388
0.00242569
0.111212
0.00364486
0.113621
0.00483053
0.11661
0.00600284
0.120147
0.00711509
0.124222
0.00820115
0.128789
0.00920138
0.133835
0.0101668
0.0110168
0.108393
0.000602443
-0.107787
0.109608
0.00121007
0.111432
0.00182157
0.113846
0.00241618
0.116845
0.00300385
0.120398
0.00356157
0.124494
0.00410572
0.129088
0.00460734
0.134164
0.00509065
0.00551726
0.108509
-0.107907
0.109719
0.111541
0.113957
0.116961
0.120522
0.124628
0.129235
0.134326
0.045545
0.060485
-0.0550917
-0.0509383
0.0398004
0.0604538
-0.0547092
0.0341523
0.0608163
-0.0551681
0.0285826
0.0616524
-0.0560827
0.0230442
0.0628976
-0.0573592
0.0175107
0.064599
-0.0590655
0.011984
0.0667581
-0.0612315
0.00663884
0.0682979
-0.0629528
0.00214654
0.0638742
-0.0593819
0.0384498
-0.0363032
0.0420193
0.0660409
-0.0475753
0.0365271
0.065946
0.0311421
0.0662013
0.0258672
0.0669272
0.0206496
0.0681152
0.0154483
0.0698004
0.0102877
0.0719187
0.00540724
0.0731784
0.00153529
0.0677461
0.0399851
0.0379775
0.0712235
-0.0431601
0.0327963
0.0711271
0.0276986
0.0712991
0.0227211
0.0719047
0.0178345
0.0730018
0.0130013
0.0746335
0.00827305
0.076647
0.0039561
0.0774954
0.000808532
0.0708937
0.0407936
0.03312
0.0759743
-0.0378708
0.0283753
0.0758719
0.0236773
0.0759971
0.0190826
0.0764994
0.0145904
0.077494
0.0101806
0.0790433
0.00593629
0.0808913
0.00228274
0.0811489
-6.91921e-05
0.0732456
0.0407244
0.0274972
0.0802644
-0.0317873
0.0232352
0.0801339
0.019024
0.0802082
0.0149052
0.0806183
0.0108878
0.0815114
0.00697818
0.0829529
0.00329187
0.0845776
0.00028389
0.0841569
-0.00082655
0.0743561
0.0398979
0.021127
0.0840235
-0.0248861
0.0174175
0.0838434
0.0137666
0.0838591
0.0102016
0.0841833
0.0067383
0.0849747
0.00342038
0.0862708
0.000457062
0.0875409
-0.00155428
0.0861683
-0.0016767
0.0744785
0.0382212
0.0141043
0.0871607
-0.0172415
0.0110124
0.0869353
0.00797836
0.0868932
0.0050263
0.0871354
0.00218526
0.0878158
-0.0004768
0.0889328
-0.00264045
0.0897046
-0.0036081
0.0871359
-0.0025328
0.0734032
0.0356884
0.00650957
0.0896232
-0.00897207
0.00407717
0.0893677
0.00172374
0.0892466
-0.000558524
0.0894176
-0.00275481
0.0900121
-0.00468826
0.0908663
-0.0059534
0.0909697
-0.00575688
0.0869394
-0.00335065
0.070997
0.0323377
-0.00156529
0.0915022
-0.000313765
-0.00329312
0.0910955
-0.00496088
0.0909144
-0.00656671
0.0910235
-0.00803151
0.0914769
-0.00914991
0.0919847
-0.00938879
0.0912086
-0.00786961
0.0854202
-0.00405852
0.0671859
0.0282792
-0.0100242
0.00908053
-0.0110068
-0.0119582
-0.0128417
-0.013547
-0.0137585
-0.0128176
-0.00982102
-0.0045716
0.0492359
0.00464859
-0.0538845
0.0444177
0.00481825
0.0394027
0.00501495
0.0341675
0.00523526
0.0286799
0.00548755
0.0228966
0.00578331
0.0167668
0.00612983
0.0103093
0.00645749
0.00402005
0.00628925
0.00402005
0.0494793
0.00937856
-0.0542093
0.0445909
0.00970665
0.0395177
0.0100882
0.034236
0.010517
0.0287135
0.0110101
0.0229061
0.0115907
0.0167607
0.0122752
0.0102943
0.0129239
0.00401638
0.0125671
0.00803642
0.0499172
0.0142617
-0.0548003
0.0448969
0.0147269
0.039714
0.0152711
0.0343445
0.0158865
0.0287554
0.0165992
0.0229017
0.0174444
0.0167304
0.0184465
0.0102592
0.0193951
0.00399196
0.0188344
0.0120284
0.0504555
0.0193466
-0.0555404
0.0452613
0.0199212
0.0399332
0.0205992
0.0344477
0.021372
0.0287714
0.0222754
0.0228594
0.0233565
0.016658
0.0246479
0.0101866
0.0258666
0.0039482
0.0250727
0.0159766
0.0509679
0.0246564
-0.0562777
0.0455777
0.0253114
0.0400868
0.0260901
0.0344742
0.0269845
0.0287069
0.0280427
0.0227379
0.0293254
0.0165138
0.030872
0.0100576
0.0323228
0.00387474
0.0312556
0.0198513
0.0513313
0.0301709
-0.0568458
0.0457537
0.030889
0.0401008
0.0317429
0.0343627
0.0327226
0.0285099
0.0338956
0.0224948
0.0353405
0.0162649
0.037102
0.00985034
0.0387373
0.00376128
0.0373446
0.0236126
0.0513462
0.0358817
-0.0570571
0.0455882
0.0366471
0.0398
0.0375311
0.0339762
0.0385464
0.0280777
0.0397941
0.022054
0.0413642
0.0158573
0.0432987
0.00953159
0.045063
0.00359896
0.0432773
0.0272116
0.0511033
0.0417322
-0.0569538
0.0451631
0.0425873
0.0392532
0.0434411
0.0333609
0.0444387
0.0274304
0.0457246
0.0214147
0.0473799
0.0152773
0.0494361
0.00908307
0.0512572
0.00337652
0.0489838
0.0305881
0.0498893
0.0479306
-0.0560877
0.0438343
0.0486423
0.0379868
0.0492886
0.0321814
0.0502441
0.0263426
0.0515633
0.0204391
0.0532834
0.0144473
0.0554279
0.00846116
0.0572433
0.00306173
0.0543833
0.0336498
0.0485281
-0.0556891
0.0424612
0.0365817
0.0307431
0.0249472
0.0191651
0.0133615
0.00765206
0.00265343
0.058576
-0.000223914
0.0587999
-0.000223845
0.0590202
-0.000220319
0.0592297
-0.00020948
0.0594215
-0.000191811
0.0595895
-0.000167995
0.0597272
-0.000137785
0.0598276
-0.000100327
0.0598817
-5.40922e-05
0.0598776
4.03001e-06
0.0598151
6.25046e-05
0.0596803
0.000134825
0.0594599
0.000220448
0.0591389
0.000321003
0.0587002
0.000438666
0.0581235
0.000576643
0.0573862
0.000737304
0.056458
0.000928217
0.0553149
0.00114311
0.00143039
0.0592035
-0.000452427
0.0594224
-0.000442663
0.0596332
-0.000431186
0.0598314
-0.000407665
0.0600114
-0.000371787
0.0601672
-0.000323783
0.0602922
-0.000262826
0.0603791
-0.000187179
0.0604187
-9.37119e-05
0.0604026
2.0131e-05
0.0603256
0.000139541
0.0601752
0.000285165
0.0599383
0.000457347
0.0595998
0.000659489
0.0591426
0.000895872
0.0585462
0.0011731
0.0577879
0.00149559
0.0568365
0.00187956
0.0556695
0.00231015
0.00289056
0.0604391
-0.000652076
0.0606341
-0.00063758
0.0608216
-0.000618712
0.0609958
-0.000581921
0.0611509
-0.000526877
0.0612808
-0.000453648
0.0613788
-0.000360838
0.0614373
-0.000245633
0.0614467
-0.00010318
0.0614035
6.33936e-05
0.061296
0.000246971
0.0611132
0.00046795
0.060842
0.000728565
0.0604672
0.00103431
0.0599717
0.00139141
0.0593344
0.0018104
0.0585332
0.00229678
0.0575348
0.00287798
0.05632
0.00352495
0.00441026
0.062229
-0.000810305
0.0623827
-0.000791333
0.0625286
-0.00076461
0.0626607
-0.000714044
0.0627728
-0.000638986
0.0628586
-0.000539406
0.0629113
-0.000413514
0.0629227
-0.000257036
0.062882
-6.25184e-05
0.0627925
0.000152905
0.0626351
0.000404382
0.0623994
0.000703622
0.0620728
0.00105519
0.0616398
0.00146733
0.0610834
0.00194783
0.0603815
0.00251227
0.0595131
0.00316516
0.058441
0.00395009
0.0571526
0.00481336
0.0060224
0.0645019
-0.000901817
0.0645922
-0.000881652
0.0646735
-0.000845943
0.0647401
-0.000780616
0.0647855
-0.000684431
0.0648032
-0.000557126
0.064786
-0.000396229
0.0647255
-0.000196531
0.0646154
4.75196e-05
0.0644539
0.00031447
0.0642212
0.000636996
0.0639074
0.00101747
0.0634999
0.00146265
0.0629828
0.0019845
0.0623394
0.00259119
0.0615459
0.00330576
0.0605836
0.00412748
0.0594088
0.00512493
0.0580192
0.00620292
0.00776388
0.067171
-0.000898975
0.0671705
-0.000881145
0.0671585
-0.000833979
0.0671301
-0.000752266
0.0670796
-0.000633839
0.0670001
-0.000477718
0.0668843
-0.000280361
0.0667179
-3.01477e-05
0.0665185
0.00024694
0.066252
0.000580959
0.0659138
0.000975201
0.0654921
0.00143917
0.0649745
0.00198026
0.0643435
0.00261545
0.0635841
0.00335063
0.0626685
0.00422129
0.0615827
0.00521335
0.0602725
0.0064351
0.0587512
0.00772421
0.00966933
0.0701457
-0.000775295
0.0700204
-0.000755827
0.0698805
-0.000694096
0.069722
-0.000593692
0.0695402
-0.000452085
0.0693282
-0.000265699
0.0690732
-2.53836e-05
0.0687907
0.000252346
0.0684503
0.00058737
0.0680459
0.000985327
0.0675688
0.00145226
0.0670058
0.00200224
0.0663455
0.00264053
0.0655681
0.00339284
0.0646623
0.00425647
0.0635941
0.00528945
0.0623589
0.0064486
0.0608839
0.00791008
0.0591931
0.00941497
0.0118054
0.0733403
-0.000495794
0.0730497
-0.000465293
0.0727415
-0.000385892
0.0724126
-0.000264793
0.0720596
-9.90276e-05
0.0716764
0.000117431
0.0712637
0.000387366
0.0708032
0.00071287
0.0702889
0.00110161
0.0697103
0.00156397
0.0690584
0.00210415
0.0683179
0.00274276
0.0674797
0.00347869
0.0665191
0.00435345
0.0654315
0.00534405
0.0641725
0.00654848
0.0627575
0.00786357
0.0610917
0.00957589
0.0592482
0.0112585
0.0140998
0.0766817
-1.43809e-05
0.0761782
3.81891e-05
0.0756559
0.000136353
0.0751149
0.000276243
0.0745519
0.000463952
0.0739615
0.000707855
0.0733369
0.00101199
0.0726663
0.00138347
0.0719427
0.00182517
0.0711539
0.00235275
0.0702922
0.00296586
0.0693391
0.00369583
0.0682907
0.00452718
0.0671135
0.00553055
0.065817
0.00664064
0.0643263
0.00803915
0.0626961
0.00949374
0.0607358
0.0115362
0.0586842
0.0133101
0.0166963
0.080141
0.000790894
0.0793531
0.000826066
0.0785662
0.000923194
0.0777691
0.00107341
0.0769538
0.00127924
0.076113
0.00154866
0.0752394
0.00188561
0.0743225
0.00230036
0.0733545
0.00279311
0.072322
0.00338528
0.0712193
0.00406851
0.0700257
0.0048895
0.0687455
0.00580737
0.067339
0.00693705
0.065847
0.00813265
0.0641718
0.00971429
0.0624781
0.0111874
0.0604435
0.0135708
0.0586014
0.0151521
0.0196086
0.0773404
0.000772485
0.0773312
0.000835275
0.0773204
0.000933905
0.077312
0.00108184
0.0773065
0.00128476
0.0773038
0.00155133
0.0773063
0.00188313
0.0773147
0.002292
0.0773343
0.00277348
0.077366
0.00335357
0.0774234
0.00401114
0.0775043
0.00480859
0.0776421
0.00566953
0.0778198
0.00675938
0.078123
0.00782946
0.0784816
0.00935564
0.0791261
0.0105429
0.0798901
0.0128068
0.0814793
0.0135629
0.0170078
0.08408
0.0808491
0.000784919
0.0808381
0.000846317
0.080833
0.000938976
0.0808351
0.0010798
0.0808445
0.00127538