/*--------------------------------*- C++ -*----------------------------------*\
| =========                 |                                                 |
| \\      /  F ield         | OpenFOAM: The Open Source CFD Toolbox           |
|  \\    /   O peration     | Version:  4.1                                   |
|   \\  /    A nd           | Web:      www.OpenFOAM.org                      |
|    \\/     M anipulation  |                                                 |
\*---------------------------------------------------------------------------*/
FoamFile
{
    version     2.0;
    format      ascii;
    class       volScalarField;
    location    "13.7";
    object      p;
}
// * * * * * * * * * * * * * * * * * * * * * * * * * * * * * * * * * * * * * //

dimensions      [0 2 -2 0 0 0 0];

internalField   nonuniform List<scalar> 
2000
(
-0.0730109
-0.0632916
-0.0544828
-0.0461221
-0.0383308
-0.0309816
-0.0236702
-0.0171166
-0.00956498
-0.00709017
-0.0907889
-0.0775155
-0.0663863
-0.055984
-0.0460869
-0.0365696
-0.0273072
-0.0185581
-0.00970661
-0.00378154
-0.112135
-0.0947726
-0.08108
-0.0681706
-0.0553446
-0.0427164
-0.0304706
-0.0188614
-0.0077241
0.00201702
-0.136939
-0.115015
-0.0983899
-0.0820558
-0.0650432
-0.0481478
-0.0320389
-0.0170749
-0.00304151
0.00896507
-0.164265
-0.137554
-0.117303
-0.0960648
-0.0733828
-0.0511886
-0.0306307
-0.0119951
0.00476517
0.0192834
-0.1923
-0.160896
-0.135707
-0.107729
-0.0780999
-0.05
-0.0247745
-0.00253045
0.0169887
0.0339679
-0.218156
-0.182592
-0.150536
-0.114117
-0.0768673
-0.0428116
-0.0130992
0.012542
0.0346756
0.0541016
-0.238195
-0.199195
-0.158366
-0.112443
-0.0676302
-0.0280701
0.00566451
0.0343199
0.0589119
0.0806389
-0.248649
-0.206668
-0.15598
-0.10045
-0.0487629
-0.0044917
0.0325908
0.0637615
0.0904879
0.114066
-0.246183
-0.201312
-0.140653
-0.0764968
-0.0191252
0.0288481
0.0684783
0.101563
0.12995
0.154707
-0.00179279
-0.00508423
-0.00622587
-0.00674496
-0.00696158
-0.00687077
-0.00648881
-0.00585836
-0.00506936
-0.00431768
-0.00335545
-0.00643537
-0.0074389
-0.0078594
-0.00797782
-0.00777245
-0.00724769
-0.00642181
-0.00535396
-0.00439691
-0.00637259
-0.00900964
-0.00975347
-0.00996033
-0.00986384
-0.00941534
-0.00859501
-0.00739296
-0.00577519
-0.00420135
-0.0106188
-0.0126227
-0.0129621
-0.0128191
-0.0123778
-0.0115518
-0.0102828
-0.00855907
-0.00616971
-0.00275569
-0.015873
-0.0170805
-0.0168462
-0.016195
-0.0152729
-0.0139551
-0.0121146
-0.00965941
-0.00615139
-0.00143342
-0.0219965
-0.0222481
-0.0212266
-0.0198838
-0.0183367
-0.0164303
-0.0139579
-0.010746
-0.00618447
0.00131714
-0.0290049
-0.0281071
-0.0260153
-0.0237707
-0.0214085
-0.0187906
-0.0156077
-0.0116102
-0.00663069
0.00474496
-0.0371207
-0.0346828
-0.0313874
-0.0279248
-0.0245034
-0.0209986
-0.0169989
-0.0121117
-0.00735034
0.00678885
-0.0467732
-0.0424068
-0.0375605
-0.032639
-0.0279596
-0.0233896
-0.0184679
-0.0128157
-0.0076774
0.00617593
-0.0585193
-0.0517629
-0.045054
-0.0385011
-0.0323797
-0.0265784
-0.0206064
-0.0146936
-0.00840466
0.000339834
-0.00376052
-0.00302804
-0.0022579
-0.00150616
-0.000781804
-9.6588e-05
0.000536497
0.00110661
0.00160451
0.00202167
0.00234962
0.00257919
0.0026996
0.00269868
0.00256638
0.00229685
0.00186598
0.00119851
0.000314056
-0.000186444
-0.00415236
-0.00332832
-0.00243982
-0.00161082
-0.000824506
-8.44286e-05
0.000596842
0.00120929
0.00174486
0.00219621
0.00255582
0.00281507
0.00296308
0.00298635
0.00287172
0.00260923
0.00217498
0.00149238
0.000541882
-0.000125208
-0.00482602
-0.00375347
-0.00263448
-0.00166788
-0.000769326
7.09297e-05
0.000839794
0.00152842
0.00213066
0.00264099
0.00305344
0.00336022
0.00355015
0.00360787
0.00351575
0.00325541
0.0027995
0.00207749
0.00102157
9.35398e-06
-0.00603834
-0.00400934
-0.00259316
-0.0014774
-0.00043769
0.000533018
0.00141804
0.00220724
0.00289526
0.00347864
0.00395323
0.00431186
0.00454193
0.00462599
0.00454159
0.00426037
0.00375144
0.00297169
0.00183321
1.72528e-05
-0.0057994
-0.00450369
-0.00244993
-0.000948329
0.000244723
0.00135062
0.00237773
0.00329359
0.00408629
0.00475567
0.00530077
0.00571457
0.0059806
0.0060749
0.00596976
0.00562875
0.00500642
0.00403174
0.00259426
0.000702524
-0.00607164
-0.00525699
-0.00229371
-0.000239045
0.00112199
0.00236049
0.00356183
0.00464689
0.00557998
0.00636426
0.0070031
0.00748726
0.00779307
0.00788778
0.00773816
0.00729963
0.00652261
0.00531935
0.00359554
0.00120795
-0.00531145
-0.00617942
-0.00241516
0.000429002
0.00203225
0.0033856
0.00477608
0.00607888
0.0072069
0.00815471
0.00892055
0.00948462
0.00982444
0.00990548
0.00969016
0.0091133
0.00815517
0.00666797
0.00460366
0.00167774
-0.00539324
-0.00749454
-0.0028626
0.000925756
0.00286864
0.00440466
0.00603149
0.0075609
0.00886131
0.00994138
0.0108155
0.0114599
0.0118425
0.0119126
0.0116017
0.0107725
0.00967214
0.0078717
0.00545835
0.00203526
-0.00498754
-0.00682857
-0.00170532
0.00217691
0.00416421
0.00591008
0.00772776
0.00934286
0.0106813
0.0117936
0.0126931
0.0133409
0.0136943
0.0136944
0.0133223
0.0125195
0.0109577
0.00861652
0.00598104
0.00220237
-0.00886957
-0.00693949
-0.00132638
0.00214641
0.00463488
0.00708564
0.00928717
0.0110486
0.0124495
0.0135747
0.0144381
0.0150017
0.0152505
0.0151223
0.0145934
0.0135415
0.0119482
0.00969714
0.00645246
0.00229369
0.00260272
0.00494152
0.00526177
0.0062342
0.00803668
0.0100174
0.011736
0.0131242
0.0142509
0.0151429
0.015792
0.0161482
0.01619
0.0158388
0.0150868
0.0137998
0.0119991
0.00946511
0.00627069
0.00219541
0.00413166
0.00672641
0.00834897
0.00978494
0.0113671
0.0129003
0.0142021
0.0152396
0.016045
0.0166225
0.0169633
0.0170196
0.0167727
0.0161484
0.0151421
0.0136348
0.0116583
0.00903286
0.00588885
0.00200352
0.0120794
0.0122491
0.0134416
0.0146311
0.015712
0.016572
0.017252
0.0177755
0.0181367
0.0183058
0.0182609
0.0179578
0.0173777
0.0164578
0.0151876
0.0134767
0.0113447
0.0086763
0.00556962
0.00190963
0.0208045
0.0185835
0.0186704
0.0196598
0.0203105
0.0205392
0.0205745
0.0205308
0.0204022
0.0201336
0.0196831
0.0190086
0.0180869
0.0168705
0.0153385
0.0134341
0.0111536
0.00844636
0.00535138
0.00186501
0.0300975
0.0262182
0.0252036
0.0253358
0.0252699
0.0248268
0.024198
0.0235447
0.0228813
0.0221436
0.0212686
0.0202108
0.0189398
0.0174227
0.0156294
0.0135304
0.0110996
0.00833358
0.00522576
0.00184404
0.039968
0.0347253
0.0323184
0.031334
0.0304672
0.0293318
0.0280402
0.0267639
0.0255396
0.0243093
0.0229956
0.021547
0.0199241
0.0181042
0.0160509
0.0137527
0.01117
0.00832795
0.0051791
0.00183241
0.0501346
0.0435344
0.0397129
0.0375746
0.0358454
0.0339887
0.0320342
0.0301337
0.0283378
0.026601
0.0248393
0.0229949
0.0210198
0.0188956
0.016583
0.0140785
0.0113378
0.00839054
0.0051888
0.00182417
0.060113
0.0522857
0.0471979
0.0439556
0.0413385
0.0387402
0.0361177
0.0336004
0.0312346
0.0289866
0.0267725
0.0245298
0.0222032
0.0197742
0.0172021
0.0144855
0.0115801
0.0085107
0.00523369
0.00182159
0.0696374
0.0608297
0.0546575
0.0503799
0.0468735
0.0435263
0.0402198
0.0371058
0.0341818
0.0314281
0.0287632
0.0261243
0.0234492
0.020718
0.0178871
0.0149556
0.0118789
0.00867716
0.00530959
0.00183182
0.0786193
0.069084
0.0619798
0.0567248
0.0523402
0.0482553
0.0443354
0.0405937
0.0371272
0.0338825
0.0307768
0.0277498
0.0247333
0.0217065
0.0186201
0.0154754
0.0122224
0.00888358
0.0054116
0.00186027
0.0869756
0.0769458
0.0690365
0.062856
0.0576147
0.0528063
0.0482602
0.043967
0.0400112
0.0363021
0.0327746
0.0293753
0.0260301
0.0227193
0.0193843
0.016032
0.0126011
0.00912481
0.00553641
0.00190837
0.0945903
0.084288
0.0756958
0.0686495
0.0625924
0.0571072
0.052006
0.0472627
0.0427944
0.0386435
0.034719
0.0309691
0.0273133
0.0237343
0.0201617
0.0166108
0.0130043
0.009392
0.00567986
0.00197157
0.101385
0.0909926
0.0818387
0.0740048
0.0671926
0.061084
0.0554708
0.0502632
0.0453963
0.0408563
0.0365714
0.032499
0.028556
0.0247271
0.0209325
0.0171932
0.0134182
0.00967121
0.00583445
0.00203806
0.107368
0.0969794
0.0873738
0.078854
0.0713688
0.0647014
0.0586303
0.0530238
0.0477943
0.0429082
0.0383008
0.0339356
0.029732
0.0256726
0.021675
0.0177575
0.0138264
0.00994463
0.0059893
0.00209162
0.112604
0.102209
0.0922429
0.08316
0.0751007
0.0679433
0.0614697
0.055513
0.0499637
0.0447725
0.0398809
0.035253
0.030817
0.0265467
0.0223677
0.0182825
0.0142118
0.010195
0.00613295
0.00211893
0.117131
0.106654
0.096401
0.0868859
0.0783679
0.070796
0.0639715
0.0577079
0.0518807
0.046424
0.0412866
0.036427
0.0317883
0.0273281
0.0229909
0.0187508
0.0145594
0.0104107
0.00625724
0.002117
0.120908
0.110266
0.099791
0.0899764
0.0811198
0.0732161
0.0660971
0.0595716
0.05351
0.0478296
0.0424875
0.0374306
0.0326213
0.0279963
0.0235263
0.0191489
0.0148573
0.010587
0.00635855
0.00209454
0.123851
0.113012
0.10237
0.0923603
0.083273
0.0751247
0.0677775
0.0610439
0.0547983
0.0489424
0.0434413
0.0382282
0.033285
0.0285272
0.0239531
0.0194634
0.0150936
0.0107217
0.00643511
0.00206474
0.125959
0.11493
0.104149
0.0940043
0.0847654
0.0764521
0.0689466
0.0620669
0.0556934
0.0497163
0.0441061
0.0387843
0.0337484
0.0288972
0.0242508
0.0196816
0.0152578
0.0108132
0.00648571
0.00203869
0.127217
0.116054
0.10515
0.0949046
0.0855718
0.0771635
0.0695686
0.0626082
0.0561653
0.0501239
0.0444557
0.039077
0.0339916
0.0290919
0.0244065
0.019797
0.0153429
0.0108628
0.0065109
0.00202747
0.174363
0.133901
0.0998747
0.0720927
0.0503402
0.0338372
0.0218589
0.012817
0.00724382
-0.00423118
0.190681
0.151486
0.118166
0.0902421
0.067746
0.0493935
0.0357311
0.0227797
0.0156188
0.00129781
0.205806
0.168143
0.1359
0.108102
0.085245
0.0650643
0.0498597
0.0338693
0.0259356
0.0122368
0.219657
0.183378
0.152073
0.1243
0.101227
0.0798237
0.0639356
0.0470821
0.0385951
0.0246939
0.232237
0.197107
0.166567
0.138844
0.115766
0.0939249
0.077848
0.0607851
0.0508288
0.0360374
0.24364
0.209509
0.17967
0.152165
0.129267
0.107384
0.0909467
0.0734243
0.0620016
0.0468691
0.253948
0.220732
0.191576
0.164425
0.141733
0.119862
0.102939
0.0850998
0.0729723
0.0579498
0.263214
0.230843
0.202329
0.175582
0.153057
0.131259
0.114061
0.0963003
0.0838869
0.0689877
0.271457
0.239858
0.211925
0.1856
0.163254
0.141673
0.124433
0.106925
0.0942032
0.0794517
0.27871
0.247812
0.220391
0.194511
0.17238
0.151123
0.133893
0.116631
0.103554
0.0890986
0.285025
0.254783
0.227809
0.202383
0.18047
0.15956
0.142303
0.125279
0.111918
0.0978322
0.290448
0.260839
0.234266
0.209288
0.187576
0.166993
0.149706
0.132914
0.119375
0.105563
0.295063
0.266024
0.239848
0.215304
0.193793
0.173503
0.156233
0.13962
0.125993
0.112275
0.298954
0.270443
0.244665
0.220524
0.199235
0.179193
0.161999
0.145487
0.131844
0.118099
0.302238
0.274214
0.248819
0.225041
0.203985
0.184153
0.167066
0.150625
0.136998
0.123242
0.304992
0.27741
0.252364
0.228915
0.208074
0.188449
0.171451
0.155126
0.141479
0.127835
0.307234
0.280055
0.255299
0.232165
0.211492
0.192099
0.175139
0.159007
0.145265
0.131833
0.308919
0.282111
0.257592
0.234765
0.214212
0.195078
0.178107
0.162209
0.148312
0.135084
0.309933
0.283465
0.25915
0.236618
0.216172
0.197296
0.180315
0.164636
0.150589
0.137491
0.310218
0.283975
0.259803
0.237496
0.217153
0.198481
0.181529
0.166017
0.151909
0.13889
0.779079
0.78021
0.773607
0.760879
0.74331
0.720514
0.690065
0.648699
0.598086
0.570169
0.727241
0.724311
0.709614
0.690257
0.667389
0.6389
0.601463
0.551625
0.491131
0.4559
0.669064
0.660597
0.639726
0.615252
0.587515
0.553343
0.509023
0.4511
0.381296
0.339216
0.601451
0.588802
0.564413
0.536513
0.504717
0.465419
0.414898
0.349886
0.271806
0.224047
0.529534
0.51352
0.486721
0.456203
0.420963
0.377245
0.321517
0.25099
0.166086
0.114621
0.457468
0.438284
0.409576
0.376951
0.338844
0.291458
0.231457
0.157166
0.0676366
0.0157868
0.387412
0.36535
0.335301
0.301168
0.260893
0.210782
0.147531
0.0697975
-0.0167792
-0.0698341
0.320816
0.296503
0.265831
0.230945
0.189351
0.137758
0.0730153
-0.00490994
-0.087308
-0.139998
0.259056
0.233406
0.202941
0.168099
0.126156
0.0743406
0.0102994
-0.0652964
-0.14232
-0.193002
0.202954
0.177611
0.14803
0.1137
0.072419
0.0218869
-0.0396517
-0.110634
-0.180344
-0.228199
1.0606
1.0688
1.07832
1.08923
1.10152
1.11506
1.12941
1.14326
1.15582
1.17329
1.05768
1.06526
1.07434
1.08475
1.0964
1.10915
1.12253
1.13521
1.14643
1.16315
1.05152
1.05789
1.06608
1.07549
1.08587
1.09705
1.1085
1.11884
1.1275
1.14253
1.04156
1.04609
1.05297
1.06093
1.06945
1.07831
1.08691
1.09378
1.09866
1.11109
1.02704
1.02911
1.03428
1.04037
1.04648
1.05233
1.05721
1.05954
1.05942
1.06835
1.00707
1.00604
1.00915
1.01299
1.01621
1.01842
1.01879
1.01561
1.00932
1.01385
0.980792
0.976072
0.976917
0.978266
0.978123
0.976082
0.971215
0.961606
0.948059
0.947299
0.946614
0.937813
0.936578
0.935426
0.931628
0.924874
0.914181
0.897386
0.875596
0.868771
0.904072
0.891529
0.888835
0.884868
0.876811
0.864835
0.847815
0.823207
0.792339
0.778822
0.847715
0.836426
0.833868
0.826685
0.813935
0.796467
0.772774
0.739878
0.699283
0.678661
1.00025
1.00105
1.00242
1.00396
1.00549
1.00705
1.00869
1.01045
1.01237
1.01446
1.01675
1.01927
1.02206
1.02517
1.02864
1.03254
1.03691
1.04183
1.04736
1.0536
1.00024
1.00105
1.00239
1.00389
1.00537
1.00688
1.00848
1.0102
1.01206
1.01409
1.0163
1.01874
1.02143
1.02442
1.02776
1.03149
1.03566
1.04034
1.04557
1.05144
1.00026
1.00105
1.0023
1.00371
1.00511
1.00653
1.00804
1.00965
1.01139
1.01329
1.01535
1.0176
1.02009
1.02284
1.02588
1.02926
1.03301
1.03717
1.04175
1.04684
1.00028
1.00101
1.00213
1.0034
1.00467
1.00595
1.00731
1.00875
1.01031
1.01197
1.01378
1.01574
1.01788
1.02023
1.0228
1.0256
1.02865
1.03196
1.03547
1.03927
1.00028
1.00093
1.00186
1.00293
1.004
1.00508
1.00621
1.0074
1.00868
1.01002
1.01145
1.01298
1.01462
1.01637
1.01822
1.02016
1.02216
1.02421
1.02612
1.02799
1.00025
1.00078
1.00147
1.00225
1.00306
1.00387
1.00469
1.00556
1.00641
1.00729
1.00821
1.00914
1.01007
1.01098
1.01182
1.01256
1.0131
1.01338
1.01306
1.01218
1.00017
1.00052
1.00091
1.00134
1.0018
1.00224
1.00268
1.00305
1.00338
1.00368
1.00392
1.00405
1.00404
1.00381
1.00331
1.0024
1.00095
0.998812
0.995581
0.99114
1.00004
1.00012
1.00015
1.00017
1.00019
1.00016
1.00005
0.999851
0.999547
0.999103
0.998475
0.99759
0.996383
0.994727
0.992525
0.989534
0.985597
0.98026
0.973112
0.963414
0.999813
0.999493
0.999118
0.998696
0.998201
0.997598
0.996863
0.99597
0.994881
0.993525
0.99184
0.989698
0.987023
0.983574
0.979281
0.973651
0.966706
0.95733
0.945673
0.929003
0.999608
0.998737
0.997911
0.997021
0.995932
0.994623
0.99312
0.991386
0.98935
0.986881
0.983896
0.980177
0.975643
0.969837
0.962757
0.953329
0.942028
0.926154
0.908127
0.881114
0.999358
0.998019
0.996844
0.995485
0.993723
0.991606
0.989246
0.986595
0.983536
0.979862
0.975471
0.970062
0.96356
0.955318
0.945392
0.932276
0.916596
0.894151
0.867079
0.821584
0.999091
0.997451
0.995952
0.994019
0.991458
0.988491
0.985319
0.981834
0.977851
0.973096
0.967498
0.960687
0.952653
0.942585
0.930707
0.915221
0.897136
0.872311
0.844347
0.805267
0.999663
0.997921
0.995851
0.992853
0.989093
0.985148
0.98121
0.97695
0.972073
0.966267
0.959531
0.951443
0.942069
0.930475
0.917071
0.899946
0.880558
0.855003
0.827613
0.790578
0.99924
0.999373
0.997402
0.992415
0.986662
0.981524
0.976891
0.971918
0.966143
0.95927
0.951417
0.942117
0.931514
0.918569
0.903894
0.885495
0.865235
0.839115
0.811988
0.775659
0.999521
1.00196
0.999546
0.991666
0.983528
0.977316
0.972214
0.96663
0.959976
0.952058
0.943149
0.932733
0.921028
0.906907
0.891181
0.871781
0.850871
0.824351
0.797441
0.762032
0.999651
1.00372
1.00019
0.989353
0.979385
0.972718
0.967359
0.961118
0.953544
0.944632
0.934762
0.923343
0.91065
0.895519
0.878909
0.858746
0.837347
0.810705
0.784062
0.749804
0.994449
0.993029
0.988985
0.980091
0.972896
0.967895
0.962531
0.95537
0.946781
0.936981
0.926295
0.914009
0.900429
0.884435
0.867068
0.846362
0.824595
0.798089
0.771691
0.738686
0.998938
0.978639
0.960465
0.958524
0.962349
0.962637
0.957682
0.949331
0.939682
0.929163
0.917836
0.904834
0.890465
0.873754
0.855737
0.834684
0.812631
0.78645
0.760228
0.728504
0.993085
0.958917
0.937797
0.943555
0.955483
0.95919
0.953951
0.944167
0.93334
0.922032
0.910006
0.896289
0.881145
0.863808
0.845202
0.823932
0.80163
0.775867
0.749747
0.719243
0.992401
0.954325
0.931885
0.939647
0.953397
0.957129
0.950753
0.939735
0.92792
0.915812
0.902991
0.888531
0.872645
0.854779
0.835665
0.814268
0.791759
0.766427
0.740377
0.710934
0.99673
0.970053
0.952938
0.955425
0.96035
0.957812
0.948571
0.936478
0.923916
0.910936
0.897142
0.881842
0.865231
0.846897
0.827362
0.805867
0.783201
0.75822
0.732258
0.703636
0.989707
0.99211
0.99819
0.99171
0.977897
0.962798
0.948638
0.935207
0.921863
0.907812
0.892829
0.876547
0.859202
0.840403
0.820512
0.798878
0.776108
0.751311
0.725495
0.697372
1.00115
1.0218
1.03229
1.01639
0.989707
0.96599
0.948302
0.93396
0.920116
0.905231
0.889265
0.872139
0.854218
0.835034
0.814916
0.793122
0.770343
0.745568
0.719993
0.692037
1.00775
1.03702
1.04826
1.02773
0.994984
0.966925
0.947476
0.932715
0.918579
0.903067
0.886338
0.868525
0.850165
0.830653
0.81039
0.788415
0.765688
0.740831
0.715564
0.687576
1.01015
1.04522
1.05758
1.03276
0.995352
0.964959
0.945226
0.930812
0.916748
0.900874
0.883631
0.865325
0.846643
0.826866
0.806486
0.784368
0.761699
0.736814
0.711833
0.683942
1.00685
1.04972
1.07064
1.04139
0.995763
0.961097
0.940712
0.927059
0.913562
0.897764
0.880456
0.862032
0.843204
0.823278
0.802781
0.780634
0.757992
0.733272
0.708477
0.681022
0.974742
0.985107
1.01528
1.01375
0.991293
0.965103
0.943364
0.925999
0.910326
0.8942
0.87718
0.859047
0.840212
0.820195
0.799524
0.777416
0.754741
0.730327
0.705598
0.678746
1.00223
0.939129
0.885876
0.899873
0.933667
0.948705
0.94134
0.923548
0.905298
0.888863
0.872945
0.855845
0.837387
0.817481
0.79672
0.774739
0.752059
0.727993
0.703311
0.676976
1.0077
0.94106
0.874215
0.881246
0.918532
0.938983
0.935657
0.920506
0.903339
0.886956
0.870852
0.853768
0.835377
0.815609
0.794838
0.772967
0.750271
0.72645
0.70181
0.675842
0.970398
0.986673
1.02434
1.01158
0.974101
0.94522
0.929455
0.917795
0.904364
0.888451
0.871163
0.853144
0.834435
0.814726
0.793983
0.77216
0.749413
0.725706
0.701084
0.675369
0.773225
0.717504
0.66045
0.597424
0.529777
0.461983
0.396326
0.333629
0.27497
0.2214
0.767319
0.709224
0.649147
0.588964
0.525313
0.460932
0.398948
0.340109
0.285273
0.235346
0.755737
0.699774
0.638671
0.58079
0.521714
0.461152
0.402477
0.347051
0.295598
0.248364
0.743495
0.691223
0.630508
0.573631
0.518205
0.461478
0.405929
0.353453
0.304916
0.260149
0.731683
0.68276
0.623435
0.567285
0.514717
0.461776
0.409402
0.359549
0.313512
0.270896
0.720496
0.674431
0.617212
0.562046
0.511674
0.462135
0.412886
0.365441
0.321523
0.280727
0.709897
0.666265
0.611579
0.557819
0.50924
0.462581
0.416273
0.371084
0.328978
0.289696
0.699857
0.658328
0.606463
0.554549
0.507563
0.463228
0.419508
0.376399
0.335864
0.297842
0.690459
0.650745
0.601852
0.552143
0.506653
0.464113
0.42252
0.381261
0.34211
0.305159
0.681876
0.643713
0.597764
0.550453
0.506398
0.465196
0.425232
0.38555
0.347627
0.311636
0.674374
0.637535
0.594257
0.549289
0.506576
0.466358
0.427574
0.389186
0.352332
0.31722
0.668181
0.632488
0.591384
0.548428
0.5069
0.467429
0.429497
0.392157
0.356224
0.321863
0.663276
0.628608
0.589084
0.547639
0.507087
0.468239
0.430975
0.394511
0.359455
0.32591
0.659477
0.625686
0.587199
0.54676
0.50697
0.468691
0.432023
0.396327
0.362078
0.329271
0.656426
0.623264
0.585455
0.545701
0.506528
0.468801
0.432707
0.397703
0.364174
0.332042
0.653716
0.62089
0.583645
0.544517
0.505916
0.468718
0.433151
0.398755
0.36585
0.33432
0.651215
0.618491
0.581822
0.543378
0.505335
0.468596
0.433456
0.399558
0.367164
0.336154
0.649046
0.616285
0.580118
0.542313
0.504755
0.468367
0.433539
0.400036
0.368057
0.337497
0.647622
0.614742
0.57884
0.541409
0.504111
0.4679
0.433248
0.400032
0.368386
0.33822
0.647061
0.614135
0.578317
0.540962
0.503652
0.467402
0.432746
0.399643
0.368165
0.338253
)
;

boundaryField
{
    bottom
    {
        type            symmetryPlane;
    }
    right
    {
        type            fixedValue;
        value           uniform 0;
    }
    top
    {
        type            symmetryPlane;
    }
    left
    {
        type            fixedValue;
        value           uniform 1;
    }
    cylinder
    {
        type            zeroGradient;
    }
    defaultFaces
    {
        type            empty;
    }
}


// ************************************************************************* //
