/*--------------------------------*- C++ -*----------------------------------*\
| =========                 |                                                 |
| \\      /  F ield         | OpenFOAM: The Open Source CFD Toolbox           |
|  \\    /   O peration     | Version:  4.1                                   |
|   \\  /    A nd           | Web:      www.OpenFOAM.org                      |
|    \\/     M anipulation  |                                                 |
\*---------------------------------------------------------------------------*/
FoamFile
{
    version     2.0;
    format      ascii;
    class       surfaceScalarField;
    location    "13.7";
    object      phi;
}
// * * * * * * * * * * * * * * * * * * * * * * * * * * * * * * * * * * * * * //

dimensions      [0 3 -1 0 0 0 0];

internalField   nonuniform List<scalar> 
3890
(
0.000394353
0.00140068
-0.00179504
0.00241192
-0.000977344
-0.00104023
0.00658951
-0.00662212
0.00244453
0.013111
-0.0143236
0.00780217
0.0217106
-0.0229139
0.0143143
0.0317813
-0.0313574
0.0212867
0.0425936
-0.0389443
0.028132
0.0535838
-0.0453379
0.0343477
0.0642305
-0.0507079
0.0400612
-0.0542204
0.0444059
0.0740449
0.000678028
0.000722655
0.00360542
-0.00390473
0.00925278
-0.0122695
0.0174294
-0.0225002
0.0273368
-0.0328213
0.0379648
-0.0419855
0.0484614
-0.0494409
0.0583083
-0.0551848
0.0671113
-0.0595109
-0.0624947
0.0753856
0.00105557
-0.000332914
0.00505022
-0.00789939
0.0121459
-0.0193651
0.0214935
-0.0318478
0.0317452
-0.043073
0.0417409
-0.0519812
0.050818
-0.058518
0.0587787
-0.0631456
0.0657596
-0.0664917
-0.0689514
0.0722163
0.00152094
-0.00185386
0.00663812
-0.0130166
0.0148557
-0.0275827
0.0245441
-0.0415362
0.0340923
-0.0526212
0.0425823
-0.0604712
0.0497928
-0.0657285
0.0559479
-0.0693007
0.0614177
-0.0719614
-0.0741557
0.0666219
0.00205314
-0.003907
0.00817346
-0.0191369
0.0168956
-0.0363049
0.0260232
-0.0506638
0.0341347
-0.0607326
0.0408168
-0.0671532
0.046294
-0.0712058
0.0510162
-0.0740229
0.0554004
-0.0763456
-0.0785729
0.0598177
0.00260554
-0.00651254
0.0094055
-0.0259368
0.0178966
-0.0447959
0.0257963
-0.0585636
0.0321949
-0.0671312
0.0371798
-0.0721381
0.0412342
-0.0752601
0.0448465
-0.0776352
0.0483646
-0.0798637
-0.0821712
0.0519629
0.00310704
-0.00961957
0.0101099
-0.0329397
0.017743
-0.052429
0.0240922
-0.0649127
0.0288185
-0.0718575
0.0323453
-0.0756649
0.0352346
-0.0781495
0.0379088
-0.0803094
0.0405974
-0.0825523
-0.0849759
0.0434021
0.00347354
-0.0130931
0.0101652
-0.0396314
0.0165472
-0.0588111
0.0212887
-0.0696542
0.0245103
-0.0750791
0.0267993
-0.0779539
0.0286843
-0.0800345
0.0304823
-0.0821074
0.0323315
-0.0844016
-0.0869143
0.0342699
0.00363353
-0.0167266
0.00957568
-0.0455735
0.0145383
-0.0637737
0.0177585
-0.0728744
0.0196621
-0.0769827
0.0208746
-0.0791665
0.0218381
-0.080998
0.0227699
-0.0830392
0.0237388
-0.0853705
-0.0879368
0.0247613
0.00355282
-0.0202795
0.0084609
-0.0504816
0.0119757
-0.0672885
0.0138134
-0.0747121
0.0145616
-0.0777309
0.0148044
-0.0794093
0.0148837
-0.0810773
0.0149379
-0.0830935
0.0149976
-0.0854301
0.0150703
-0.0880095
-0.000462599
0.000462599
-0.0013742
0.000911604
-0.0024875
0.0011133
-0.0036645
0.001177
-0.00482629
0.00116179
-0.0059305
0.00110421
-0.00696014
0.00102963
-0.00791791
0.000957776
-0.00882518
0.000907263
0.000900904
-0.00972608
-0.000430958
0.000893556
-0.00127566
0.00175631
-0.00229827
0.00213591
-0.00335997
0.00223869
-0.00437827
0.00218009
-0.00530463
0.00203057
-0.00611387
0.00183888
-0.00680079
0.0016447
-0.00737928
0.00148576
0.00141849
-0.00789687
-0.000373029
0.00126659
-0.00109677
0.00248004
-0.00194811
0.00298726
-0.00279068
0.00308126
-0.0035373
0.00292671
-0.00412894
0.00262221
-0.0045251
0.00223504
-0.00470487
0.00182447
-0.00467046
0.00145134
0.00118188
-0.00443385
-0.00030088
0.00156747
-0.000862742
0.0030419
-0.00147701
0.00360153
-0.00200985
0.00361409
-0.00236945
0.00328631
-0.00248591
0.00273867
-0.00229984
0.00204898
-0.00175991
0.00128453
-0.00083781
0.000529242
-4.06562e-05
0.000384731
-0.00022554
0.00179301
-0.000598048
0.00341441
-0.000916682
0.00392017
-0.00104632
0.00374373
-0.000887811
0.0031278
-0.000359664
0.00221052
0.000612657
0.00107666
0.00210014
-0.000202954
0.00416946
-0.00154008
-0.00275402
0.00688283
-0.000154486
0.00194749
-0.000315323
0.00357525
-0.000272011
0.00387685
0.000122813
0.00334891
0.000988286
0.00226233
0.00242195
0.000776854
0.0045084
-0.00100978
0.0073191
-0.00301366
0.0109142
-0.00513515
-0.00739793
0.0155581
-8.918e-05
0.00203667
-1.88913e-06
0.00348796
0.000489102
0.00338586
0.00157975
0.00225826
0.00342115
0.000420926
0.00613255
-0.00193455
0.00979315
-0.00467038
0.0144376
-0.00765811
0.020021
-0.0107186
-0.0143506
0.0269737
-2.17478e-05
0.00205842
0.000356424
0.00310979
0.00143801
0.00230428
0.00346068
0.000235587
0.00661796
-0.00273635
0.0110287
-0.00634524
0.0167212
-0.0103629
0.0236196
-0.0145565
0.0315682
-0.0186673
-0.023622
0.0408397
6.68397e-05
0.00199158
0.000834777
0.00234185
0.00269458
0.000444481
0.00594582
-0.00301566
0.0107751
-0.00756563
0.0172157
-0.0127858
0.0251419
-0.0182892
0.0342583
-0.0236728
0.0443734
-0.0287824
-0.0341358
0.0548871
0.000196544
0.00149816
0.00438718
0.00917369
0.0159223
0.0244232
0.034266
0.0449409
0.0562197
0.0664899
-0.0101677
0.000441598
-0.0105872
0.000419483
-0.01097
0.000382859
-0.0113166
0.000346579
-0.0116288
0.000312179
-0.0119081
0.000279325
-0.0121559
0.000247808
-0.0123734
0.000217495
-0.0125618
0.000188417
-0.0127227
0.000160845
-0.012858
0.000135345
-0.0129708
0.000112772
-0.013065
9.42509e-05
-0.0131461
8.11076e-05
-0.0132208
7.46516e-05
-0.0132965
7.57027e-05
-0.0133806
8.40713e-05
-0.0134793
9.87614e-05
-0.0135979
0.000118609
0.00013714
-0.0082323
0.000777028
-0.00855737
0.000744555
-0.00885557
0.000681064
-0.00912927
0.000620276
-0.00938039
0.0005633
-0.00961013
0.000509063
-0.00981937
0.000457046
-0.0100088
0.000406919
-0.010179
0.000358643
-0.0103308
0.000312591
-0.0104651
0.000269648
-0.0105836
0.000231271
-0.0106888
0.000199472
-0.0107844
0.000176724
-0.0108754
0.00016564
-0.010968
0.000168283
-0.0110689
0.000185017
-0.0111844
0.000214202
-0.0113195
0.000253702
0.000291621
-0.00459109
0.000934268
-0.00473488
0.000888346
-0.00487177
0.00081795
-0.00500271
0.000751214
-0.00512904
0.000689632
-0.0052523
0.000632324
-0.00537293
0.000577667
-0.00549099
0.000524988
-0.00560657
0.000474218
-0.00571963
0.00042565
-0.00583013
0.000380148
-0.00593819
0.000339335
-0.00604436
0.000305639
-0.00614982
0.000282183
-0.00625676
0.000272582
-0.00636878
0.000280303
-0.00649094
0.000307174
-0.00662773
0.000350996
-0.00678394
0.00040991
0.000482037
0.000556358
0.000762641
0.000619171
0.000825534
0.000676366
0.000760756
0.000734132
0.000693449
0.000780443
0.000643321
0.000811838
0.000600929
0.000828906
0.000560599
0.000832075
0.000521819
0.000821214
0.000485078
0.000796194
0.000450669
0.000757129
0.000419213
0.00070428
0.000392183
0.000637934
0.000371985
0.000558392
0.000361724
0.000465846
0.000365128
0.000359634
0.000386514
0.000237131
0.000429676
9.1335e-05
0.000496792
-8.01468e-05
0.000581392
0.000656394
0.00722837
0.000417092
0.00749888
0.000555028
0.00774889
0.000510748
0.00798684
0.000455498
0.00820356
0.000426604
0.00839556
0.000408921
0.0085644
0.000391762
0.00871109
0.000375126
0.00883512
0.000361046
0.00893555
0.000350248
0.00901159
0.000343172
0.0090626
0.00034117
0.00908796
0.000346623
0.00908746
0.000362227
0.0090615
0.000391088
0.00901071
0.000437299
0.00893531
0.000505081
0.00883389
0.00059821
0.00870188
0.000713406
0.000843559
0.0159804
-5.27477e-06
0.0163501
0.000185352
0.0166993
0.000161533
0.0170385
0.000116306
0.0173573
0.000107856
0.0176539
0.000112291
0.0179315
0.000114145
0.0181911
0.000115502
0.0184312
0.000120972
0.0186495
0.000131963
0.0188439
0.000148731
0.0190125
0.000172646
0.0191529
0.000206187
0.0192634
0.000251767
0.019343
0.000311434
0.0193917
0.000388646
0.019411
0.00048572
0.0193996
0.000609599
0.0193575
0.000755555
0.00094566
0.0273682
-0.000399685
0.0276698
-0.000116287
0.0279965
-0.000165218
0.0283283
-0.000215414
0.0286532
-0.00021704
0.0289721
-0.000206685
0.0292884
-0.000202143
0.0296004
-0.000196494
0.0299042
-0.000182808
0.0301958
-0.000159674
0.0304717
-0.000127163
0.0307282
-8.37887e-05
0.0309623
-2.79535e-05
0.0311713
4.28045e-05
0.0313534
0.000129314
0.0315063
0.000235681
0.0316341
0.000358002
0.0317332
0.000510505
0.0318176
0.00067109
0.000918831
0.0409622
-0.000522199
0.0411397
-0.000293818
0.0413881
-0.000413592
0.0416748
-0.000502186
0.041979
-0.00052119
0.0423013
-0.000529012
0.0426405
-0.000541363
0.0429884
-0.000544338
0.0433368
-0.00053124
0.0436801
-0.000502937
0.044014
-0.00046107
0.0443349
-0.000404735
0.0446403
-0.000333351
0.0449258
-0.000242688
0.04519
-0.00013482
0.045428
-2.36727e-06
0.045654
0.000132051
0.0458552
0.000309272
0.0460636
0.000462635
0.000745436
0.0548715
-0.000506576
0.0551432
-0.00056556
0.0555235
-0.000793799
0.0559125
-0.00089122
0.0563166
-0.000925276
0.0567439
-0.000956376
0.0571826
-0.000980006
0.0576212
-0.00098295
0.0580548
-0.000964803
0.0584803
-0.000928468
0.0588961
-0.000876853
0.0592997
-0.000808328
0.0596895
-0.000723158
0.0600633
-0.000616491
0.0604255
-0.000497037
0.0607738
-0.000350693
0.0611126
-0.000206736
0.0614293
-7.39658e-06
0.0617724
0.00011954
0.00040398
0.0670632
-0.00107992
0.0678504
-0.00135274
0.0685358
-0.0014792
0.0691731
-0.00152847
0.069809
-0.0015612
0.0704326
-0.00158004
0.0710387
-0.00158608
0.0716301
-0.00157439
0.072211
-0.00154565
0.0727827
-0.0015002
0.0733465
-0.00144064
0.0739018
-0.00136364
0.0744521
-0.00127344
0.0749971
-0.00116147
0.0755425
-0.0010425
0.0760857
-0.000893831
0.0766388
-0.000759822
0.0772005
-0.000569169
0.0777769
-0.000456849
-0.000199886
0.0926746
-0.000287686
-0.0934668
0.091806
-0.00048409
0.0910003
-0.000673586
0.0903032
-0.000831375
0.0896903
-0.000948219
0.089141
-0.00103078
0.08864
-0.00108507
0.0881784
-0.00111276
0.0877502
-0.00111743
0.0873496
-0.00109969
0.0869729
-0.00106389
0.0866163
-0.00100702
0.0862796
-0.000936792
0.0859614
-0.000843221
0.0856646
-0.000745675
0.085388
-0.000617312
0.0851362
-0.000508007
0.0849111
-0.000344086
0.084711
-0.000256677
-4.75524e-05
0.101163
6.47506e-05
-0.101515
0.100774
-9.56104e-05
0.100353
-0.000252261
0.0999258
-0.000404118
0.0995143
-0.000536699
0.0991203
-0.00063683
0.0987416
-0.000706316
0.0983778
-0.000749005
0.0980298
-0.000769364
0.097697
-0.000766963
0.0973797
-0.000746555
0.0970769
-0.000704255
0.0967897
-0.000649594
0.0965178
-0.000571246
0.0962631
-0.000491064
0.096026
-0.000380141
0.0958079
-0.000289959
0.0956123
-0.00014842
0.0954329
-7.73158e-05
0.000100024
0.10763
0.000381273
-0.107947
0.107363
0.000171844
0.107118
-7.93479e-06
0.106874
-0.000159348
0.106633
-0.00029588
0.106399
-0.000403366
0.106173
-0.000480244
0.105954
-0.000529483
0.105741
-0.000556766
0.105536
-0.0005616
0.105339
-0.000549592
0.10515
-0.000515815
0.104972
-0.000471293
0.104804
-0.000403224
0.104649
-0.000335521
0.104506
-0.000237315
0.104377
-0.000161154
0.104263
-3.49266e-05
0.104162
2.43966e-05
0.000182605
0.113155
0.000619025
-0.113393
0.112974
0.000352962
0.112815
0.000151264
0.112666
-1.01957e-05
0.11252
-0.000150815
0.11238
-0.000263107
0.112247
-0.000347211
0.112121
-0.000403526
0.112002
-0.000437686
0.11189
-0.000449074
0.111785
-0.000444649
0.111687
-0.000418357
0.111599
-0.000383063
0.11152
-0.000323861
0.111451
-0.000267277
0.111393
-0.00017927
0.111348
-0.000115393
0.111313
-6.24603e-07
0.111289
4.85873e-05
0.000194725
0.118365
0.000746809
-0.118493
0.118251
0.00046716
0.11815
0.000251786
0.118059
8.1246e-05
0.117968
-6.03776e-05
0.117881
-0.000175808
0.117799
-0.000265449
0.117724
-0.000328094
0.117655
-0.000369072
0.117593
-0.000386963
0.117539
-0.000390208
0.117492
-0.000371474
0.117454
-0.000345552
0.117426
-0.000295174
0.117408
-0.000249493
0.1174
-0.000171415
0.117404
-0.000119052
0.117418
-1.48749e-05
0.117441
2.52803e-05
0.000160167
0.123684
0.000814128
-0.123751
0.123609
0.000542535
0.123537
0.000323342
0.12347
0.000148032
0.123405
4.45295e-06
0.123342
-0.000112203
0.123282
-0.000205309
0.123226
-0.000272696
0.123177
-0.000319735
0.123134
-0.000343735
0.123098
-0.000354346
0.123069
-0.000343066
0.12305
-0.000326186
0.12304
-0.000284733
0.12304
-0.00024944
0.12305
-0.000181547
0.12307
-0.000139695
0.123102
-4.67374e-05
0.123142
-1.44765e-05
0.000107563
0.129231
0.000864436
-0.129281
0.129168
0.000605387
0.129103
0.000388061
0.12904
0.000211166
0.128978
6.63546e-05
0.128917
-5.05983e-05
0.128857
-0.000145825
0.128801
-0.000216787
0.128751
-0.000269036
0.128706
-0.000298863
0.128668
-0.000316402
0.128637
-0.000312535
0.128615
-0.000304127
0.128602
-0.000271775
0.128599
-0.000246058
0.128606
-0.000188827
0.128623
-0.000156371
0.128652
-7.55106e-05
0.128687
-5.01189e-05
5.7426e-05
0.13486
0.000912228
-0.134908
0.134799
0.000666526
0.134732
0.000454719
0.134664
0.000279348
0.134596
0.000134912
0.134527
1.77735e-05
0.134459
-7.80696e-05
0.134395
-0.000151923
0.134334
-0.000208597
0.134279
-0.000244045
0.134231
-0.000268011
0.13419
-0.000271601
0.134157
-0.000271115
0.134133
-0.000248049
0.134118
-0.000231141
0.134115
-0.000184983
0.134119
-0.000160913
0.134137
-9.30363e-05
0.13416
-7.3481e-05
1.83285e-05
0.140289
0.000953021
-0.14033
0.140234
0.000722139
0.14017
0.000518474
0.140102
0.000347138
0.140032
0.000204848
0.139961
8.85592e-05
0.13989
-6.93585e-06
0.139821
-8.29154e-05
0.139756
-0.000143179
0.139696
-0.000183716
0.139641
-0.000213566
0.139594
-0.000224418
0.139554
-0.000231218
0.139523
-0.000217434
0.139501
-0.000208557
0.139489
-0.000173601
0.139486
-0.000157049
0.139495
-0.000102501
0.13951
-8.80159e-05
-1.23863e-05
0.145244
0.00097041
-0.145262
0.145211
0.000755195
0.145168
0.00056147
0.145119
0.00039654
0.145065
0.000258608
0.145009
0.000145026
0.144952
5.00376e-05
0.144894
-2.5846e-05
0.14484
-8.87049e-05
0.14479
-0.00013347
0.144744
-0.000168129
0.144705
-0.000185571
0.144673
-0.000198729
0.144649
-0.000193616
0.144632
-0.000191847
0.144626
-0.00016754
0.144627
-0.000157601
0.14464
-0.000115831
0.144658
-0.000105788
-4.56598e-05
0.149619
0.000937973
-0.149586
0.149635
0.000739265
0.149638
0.000557701
0.149633
0.000402042
0.14962
0.000271132
0.149603
0.000162464
0.149583
7.04054e-05
0.149561
-4.16201e-06
0.14954
-6.75985e-05
0.149521
-0.000114719
0.149505
-0.000152527
0.149495
-0.000174954
0.149489
-0.000192975
0.14949
-0.000195006
0.149498
-0.00019897
0.149514
-0.000183701
0.149535
-0.0001793
0.149568
-0.000148527
0.149605
-0.000142243
-9.55749e-05
0.153622
0.000829138
-0.153513
0.153711
0.00064958
0.153785
0.000483804
0.153846
0.00034107
0.153897
0.000220409
0.15394
0.000119636
0.153977
3.33977e-05
0.15401
-3.76944e-05
0.154042
-9.87255e-05
0.154072
-0.000145424
0.154104
-0.000184043
0.154138
-0.000208791
0.154174
-0.000229579
0.154215
-0.000236087
0.15426
-0.000243924
0.154312
-0.000235006
0.154367
-0.00023464
0.15443
-0.000211946
0.154497
-0.000208571
-0.000172018
0.157823
0.00063617
-0.15763
0.157992
0.00048019
0.158141
0.000334807
0.158274
0.000208994
0.158392
0.000101925
0.158499
1.22794e-05
0.158598
-6.50338e-05
0.15869
-0.00012941
0.158776
-0.000185049
0.158859
-0.000228078
0.158939
-0.000264601
0.159019
-0.00028851
0.159099
-0.000309478
0.15918
-0.000317283
0.159263
-0.000326786
0.159349
-0.000320909
0.159437
-0.000322891
0.15953
-0.000304762
0.159625
-0.000303355
-0.000272998
0.162978
0.000387079
-0.162729
0.1632
0.000258553
0.163397
0.000137331
0.163575
3.14875e-05
0.163736
-5.94637e-05
0.163884
-0.000135544
0.16402
-0.000201623
0.164147
-0.000256255
0.164266
-0.00030415
0.164379
-0.000340772
0.164487
-0.000372769
0.164592
-0.00039308
0.164694
-0.000412006
0.164795
-0.000418353
0.164896
-0.000427597
0.164997
-0.000421945
0.165099
-0.000424785
0.165203
-0.000408266
0.165307
-0.000407973
-0.00038066
0.169604
0.000142719
-0.16936
0.169821
4.21275e-05
0.170012
-5.39899e-05
0.170183
-0.000139285
0.170337
-0.000213536
0.170477
-0.000275318
0.170604
-0.000329363
0.170721
-0.000373269
0.17083
-0.000412401
0.17093
-0.00044146
0.171025
-0.000467793
0.171115
-0.000483277
0.171202
-0.000499016
0.171287
-0.000502654
0.17137
-0.000510565
0.171452
-0.000503884
0.171534
-0.00050667
0.171616
-0.000490512
0.171699
-0.000490733
-0.000465213
0.177527
-3.50718e-05
-0.177349
0.17768
-0.000111271
0.177811
-0.000184568
0.177922
-0.00025059
0.178018
-0.000309285
0.1781
-0.000357844
0.178171
-0.000400579
0.178233
-0.000434524
0.178285
-0.000465318
0.178331
-0.000487326
0.178372
-0.000508142
0.178408
-0.000519196
0.17844
-0.000531704
0.178471
-0.00053302
0.1785
-0.000539406
0.178528
-0.000532147
0.178556
-0.000534579
0.178585
-0.000519373
0.178614
-0.00051981
-0.000496793
0.18581
-0.000121664
-0.185723
0.185875
-0.000176728
0.185921
-0.000230287
0.18595
-0.000279036
0.185963
-0.000323187
0.185965
-0.000359622
0.185957
-0.000391915
0.185939
-0.000417027
0.185914
-0.000440182
0.185883
-0.000456162
0.185847
-0.000471907
0.185807
-0.000479534
0.185764
-0.000489073
0.18572
-0.000489157
0.185675
-0.000494115
0.18563
-0.00048752
0.185585
-0.000489536
0.185543
-0.000476728
0.1855
-0.000477232
-0.000458357
0.193224
-0.000128178
-0.193218
0.193213
-0.000164984
0.193183
-0.000200504
0.193137
-0.000232682
0.193076
-0.000262261
0.193003
-0.000286687
0.192919
-0.0003085
0.192827
-0.000325204
0.192728
-0.000340786
0.192623
-0.000351278
0.192513
-0.000361931
0.1924
-0.000366777
0.192285
-0.000373278
0.192168
-0.000372967
0.192051
-0.00037639
0.191935
-0.000371499
0.191818
-0.000372949
0.191705
-0.000363785
0.191592
-0.000364196
-0.000350896
0.198763
-7.72465e-05
-0.198814
0.198696
-9.78895e-05
0.198611
-0.000115951
0.19851
-0.000131765
0.198394
-0.000146413
0.198266
-0.000158582
0.198127
-0.000169497
0.19798
-0.000177825
0.197825
-0.000185614
0.197664
-0.000190839
0.197498
-0.000196152
0.19733
-0.000198546
0.197159
-0.000201747
0.196987
-0.000201558
0.196814
-0.000203174
0.196643
-0.000200713
0.196472
-0.000201286
0.196305
-0.000196731
0.196137
-0.000196718
-0.00018997
0.201734
-0.201811
0.201636
0.20152
0.201389
0.201242
0.201084
0.200914
0.200736
0.200551
0.20036
0.200164
0.199965
0.199763
0.199562
0.199359
0.199158
0.198957
0.19876
0.198563
0.0918876
0.0140252
-0.0908425
0.092933
0.0237159
0.0939996
0.0332033
0.0950478
0.0423539
0.0961081
0.0509026
0.0970877
0.0588381
0.0977677
0.0659419
0.0983051
0.0716789
0.0961103
0.0775803
0.0766884
0.0950516
0.0131061
-0.0941326
0.0960169
0.0227507
0.0970598
0.0321603
0.0981593
0.0412545
0.0992535
0.0498084
0.100503
0.0575887
0.101342
0.0651029
0.102692
0.070329
0.102722
0.0775498
0.0778955
0.0984959
0.0123024
-0.0976921
0.0994082
0.0218385
0.100408
0.0311601
0.101562
0.040101
0.102663
0.0487068
0.104073
0.056179
0.10518
0.0639957
0.106652
0.0688571
0.107947
0.0762552
0.0778954
0.102048
0.0115808
-0.101327
0.102956
0.0209305
0.103966
0.0301501
0.105202
0.0388648
0.106411
0.0474981
0.10789
0.0547002
0.109308
0.0625782
0.110705
0.0674593
0.112441
0.0745194
0.0769439
0.105545
0.0109045
-0.104868
0.106485
0.0199899
0.107584
0.029051
0.108938
0.0375117
0.110363
0.0460723
0.111928
0.0531357
0.113619
0.0608872
0.115114
0.0659639
0.116991
0.0726426
0.0754422
0.108823
0.0102369
-0.108155
0.109821
0.018992
0.11107
0.0278016
0.112583
0.0359992
0.114288
0.0443674
0.116061
0.0513621
0.118043
0.0589051
0.119861
0.0641458
0.121912
0.0705923
0.0736027
0.11174
0.00954729
-0.11105
0.112817
0.0179149
0.114245
0.0263737
0.115965
0.0342792
0.117977
0.0423552
0.120092
0.0492469
0.122436
0.0565612
0.124702
0.0618793
0.127091
0.0682035
0.0714127
0.114219
0.00881654
-0.113489
0.115392
0.0167419
0.117
0.0247665
0.118957
0.0323221
0.121282
0.0400298
0.123799
0.0467302
0.12657
0.0537901
0.129339
0.0591099
0.132239
0.0653042
0.0687434
0.116304
0.00803569
-0.115523
0.117576
0.0154699
0.119342
0.0230008
0.121524
0.0301396
0.12414
0.0374145
0.127036
0.0438335
0.130254
0.0505721
0.133541
0.0558231
0.13705
0.0617951
0.0654635
0.118194
0.00720516
-0.117363
0.119548
0.0141153
0.121434
0.0211152
0.123788
0.0277857
0.126633
0.0345695
0.129831
0.040635
0.133447
0.0469566
0.13721
0.0520601
0.141313
0.0576917
0.0615152
0.120244
0.00633572
-0.119375
0.121648
0.0127112
0.123602
0.0191612
0.126051
0.0253365
0.129038
0.0315825
0.13243
0.0372433
0.136325
0.0430615
0.140456
0.0479294
0.145025
0.0531223
0.0569543
0.122907
0.00544842
-0.12202
0.124319
0.0112992
0.126289
0.0171917
0.128763
0.0228618
0.131802
0.0285442
0.13528
0.0337645
0.139308
0.0390334
0.143661
0.043577
0.148503
0.0482798
0.0519447
0.126575
0.00458936
-0.125716
0.127961
0.00991274
0.129911
0.0152417
0.132376
0.0203967
0.135412
0.025509
0.138916
0.0302598
0.142973
0.034977
0.147427
0.0391229
0.152374
0.0433328
0.0466883
0.131376
0.00379811
-0.130585
0.132723
0.00856614
0.134652
0.0133123
0.137126
0.0179233
0.140173
0.0224621
0.143723
0.0267097
0.147809
0.0308909
0.152341
0.0345912
0.157347
0.0383267
0.0413061
0.137015
0.00309389
-0.13631
0.138336
0.00724444
0.140283
0.0113653
0.142831
0.015376
0.145975
0.0193179
0.149668
0.023016
0.153903
0.0266567
0.158612
0.0298818
0.163797
0.0331422
0.0357428
0.142815
0.00245925
-0.14218
0.144152
0.00590792
0.146179
0.00933785
0.148882
0.0126731
0.152236
0.0159636
0.156201
0.0190516
0.160753
0.022105
0.165814
0.0248205
0.171394
0.0275624
0.0297877
0.148031
0.00184769
-0.147419
0.149427
0.00451221
0.151589
0.00717517
0.154504
0.00975824
0.158146
0.0123215
0.162468
0.0147298
0.167455
0.0171182
0.17301
0.0192658
0.179157
0.021415
0.0232214
0.15221
0.00122475
-0.151587
0.153681
0.00304098
0.155991
0.00486609
0.159117
0.00663183
0.163047
0.00839184
0.167726
0.01005
0.173151
0.0116934
0.179224
0.0131935
0.185964
0.014674
0.0159679
0.155226
0.000603456
-0.154604
0.156743
0.00152381
0.159155
0.00245415
0.162435
0.0033519
0.166578
0.00424889
0.171532
0.00509615
0.177291
0.005934
0.183776
0.00670817
0.190987
0.0074632
0.00814135
0.15689
-0.156286
0.158414
0.160868
0.16422
0.168469
0.173565
0.179499
0.186207
0.19367
0.0430069
0.0521568
-0.0459887
-0.0491751
0.0368938
0.0507707
-0.0446575
0.0312011
0.0498658
-0.0441732
0.0258325
0.0495304
-0.0441618
0.0206687
0.0496733
-0.0445095
0.01564
0.0502771
-0.0452484
0.0107264
0.0512104
-0.0462968
0.00604078
0.0513599
-0.0466742
0.00206183
0.0466254
-0.0426464
0.0269188
-0.024857
0.0412815
0.0582638
-0.0473884
0.0353258
0.0567264
0.0296737
0.055518
0.0243606
0.0548435
0.0193079
0.054726
0.0144318
0.0551532
0.00971308
0.0559291
0.00529778
0.0557752
0.00169646
0.0502267
0.0286153
0.0386477
0.0640482
-0.0444322
0.0329684
0.0624057
0.0275094
0.060977
0.0223514
0.0600015
0.0174736
0.0596038
0.0128144
0.0598124
0.0083713
0.0603722
0.00433043
0.059816
0.00122805
0.0533291
0.0298433
0.0349177
0.0694652
-0.0403347
0.0296448
0.0676785
0.0245462
0.0660755
0.0196972
0.0648505
0.0151117
0.0641893
0.0107627
0.0641614
0.00668892
0.064446
0.0031378
0.0633672
0.000655829
0.055811
0.0304992
0.030156
0.0744295
-0.0351203
0.0253706
0.072464
0.0207569
0.0706892
0.0163573
0.0692502
0.0121927
0.0683539
0.00826483
0.0680892
0.0046564
0.0680544
0.00171462
0.0663089
-3.76323e-05
0.0575633
0.0304615
0.0243817
0.0787985
-0.0287507
0.0202006
0.076645
0.0161864
0.0747034
0.0123541
0.0730825
0.00872325
0.0719848
0.00532655
0.0714859
0.00229451
0.0710865
-3.24188e-05
0.0686359
-0.000703932
0.0582348
0.0297576
0.0177105
0.0824346
-0.0213466
0.0142405
0.0801151
0.0109201
0.0780238
0.00775225
0.0762503
0.00475374
0.0749833
0.00199756
0.0742421
-0.000300573
0.0733846
-0.00160665
0.0699419
-0.00140557
0.0580337
0.028352
0.0102639
0.0852241
-0.0130534
0.00759795
0.082781
0.00505723
0.0805646
0.00263906
0.0786685
0.000364714
0.0772576
-0.00165781
0.0762646
-0.00310132
0.0748281
-0.00341443
0.0702551
-0.00209964
0.0567189
0.0262524
0.00219623
0.08713
-0.00410209
0.000412547
0.0845647
-0.00128281
0.0822599
-0.00290779
0.0802935
-0.00440555
0.0787554
-0.00559585
0.0774549
-0.00608329
0.0753156
-0.00524245
0.0694142
-0.00273384
0.0542103
0.0235185
-0.00628437
0.00540486
-0.00714977
-0.0079833
-0.0087671
-0.00942102
-0.00969698
-0.00909354
-0.00696781
-0.00323909
0.0324543
0.00306855
-0.0355229
0.0292635
0.00319077
0.0259309
0.00333264
0.0224355
0.00349537
0.018749
0.00368656
0.0148373
0.0039117
0.0106814
0.00415588
0.00636781
0.00431357
0.0023522
0.00401561
0.0023522
0.0330512
0.00627004
-0.0362527
0.029743
0.006499
0.026308
0.00676758
0.0227252
0.00707818
0.0189655
0.00744623
0.0149938
0.00788341
0.0107877
0.008362
0.00643009
0.00867118
0.00238251
0.00806318
0.00473472
0.0341837
0.00972456
-0.0376382
0.0306516
0.0100311
0.0270212
0.0103979
0.023271
0.0108284
0.0193708
0.0113464
0.0152838
0.0119704
0.0109844
0.0126614
0.00654931
0.0131062
0.00243076
0.0121817
0.00716548
0.0357338
0.0135252
-0.0395344
0.0318938
0.0138711
0.0279936
0.0142982
0.0240116
0.0148105
0.0199171
0.0154409
0.015671
0.0162165
0.0112434
0.017089
0.00670294
0.0176467
0.00249321
0.0163915
0.00965869
0.0375394
0.0177301
-0.0417443
0.0333363
0.0180742
0.0291161
0.0185183
0.0248594
0.0190672
0.0205352
0.0197651
0.016102
0.0206497
0.011525
0.021666
0.00686483
0.0223069
0.00255683
0.0206995
0.0122155
0.0394177
0.0223573
-0.0440449
0.0348259
0.022666
0.0302607
0.0230836
0.0257087
0.0236191
0.0211395
0.0243343
0.016509
0.0252802
0.0117783
0.0263967
0.00700125
0.0270839
0.00260588
0.0250948
0.0148214
0.041155
0.0274155
-0.0462132
0.0361733
0.0276477
0.0312729
0.027984
0.0264414
0.0284506
0.0216405
0.0291352
0.0168233
0.0300974
0.0119515
0.0312685
0.00707682
0.0319586
0.0026237
0.029548
0.0174451
0.0426345
0.0328888
-0.0481078
0.0372491
0.0330331
0.0320247
0.0332084
0.0269386
0.0335367
0.0219356
0.0341382
0.0169642
0.0350688
0.0119857
0.0362471
0.00705338
0.0368909
0.00259287
0.0340085
0.020038
0.0434302
0.0388853
-0.0494267
0.0377255
0.0387377
0.0323154
0.0386185
0.0270662
0.0387858
0.0219218
0.0392826
0.0168508
0.0401398
0.0118209
0.0412769
0.00689202
0.0418198
0.00249626
0.0384042
0.0225342
0.0436251
-0.0507285
0.0377053
0.0321507
0.0267747
0.0215479
0.0164393
0.0114194
0.00656495
0.00232278
0.0391373
-0.000102661
0.0392394
-0.000102112
0.0393382
-9.87599e-05
0.0394294
-9.11954e-05
0.0395095
-8.0109e-05
0.0395751
-6.56479e-05
0.0396225
-4.73885e-05
0.0396471
-2.45874e-05
0.0396433
3.76479e-06
0.0396092
3.41362e-05
0.0395378
7.14045e-05
0.039422
0.000115804
0.0392536
0.000168354
0.0390232
0.000230431
0.0387195
0.000303758
0.038329
0.000390437
0.0378359
0.000493149
0.0372209
0.000614996
0.0364605
0.000760347
0.000937677
0.0400045
-0.00020678
0.0401059
-0.000203526
0.0402025
-0.000195321
0.040291
-0.000179699
0.0403683
-0.000157396
0.0404309
-0.000128271
0.0404749
-9.14151e-05
0.0404957
-4.53608e-05
0.0404884
1.10955e-05
0.0404497
7.27971e-05
0.040373
0.00014811
0.040251
0.000237782
0.0400755
0.000343884
0.0398368
0.000469177
0.0395234
0.000617122
0.0391219
0.000791912
0.0386161
0.000998963
0.0379868
0.00124434
0.0372103
0.00153685
0.00189526
0.0417098
-0.000302049
0.0418032
-0.000296877
0.0418921
-0.000284195
0.0419728
-0.000260384
0.0420418
-0.000226474
0.0420958
-0.000182193
0.0421305
-0.000126114
0.042141
-5.58596e-05
0.0421238
2.82937e-05
0.0420736
0.000122991
0.0419839
0.000237815
0.0418472
0.0003744
0.0416552
0.000535915
0.0413978
0.000726539
0.0410635
0.000951503
0.0406383
0.00121707
0.0401058
0.00153149
0.0394465
0.0019036
0.0386372
0.00234622
0.00289421
0.0441922
-0.000378592
0.0442666
-0.000371297
0.0443367
-0.000354309
0.0443986
-0.000322317
0.0444486
-0.000276424
0.0444827
-0.000216338
0.0444967
-0.000140129
0.0444854
-4.45667e-05
0.0444473
6.6467e-05
0.0443737
0.000196547
0.0442586
0.000352938
0.0440944
0.000538626
0.0438723
0.000758014
0.043582
0.00101678
0.0432116
0.00132195
0.0427467
0.00168193
0.0421704
0.0021078
0.0414625
0.00261151
0.0406011
0.00320758
0.00396092
0.0473683
-0.000419147
0.0474063
-0.000409376
0.0474398
-0.000387818
0.047465
-0.000347487
0.0474779
-0.000289281
0.0474744
-0.000212875
0.0474502
-0.000115902
0.0473979
7.69415e-06
0.0473203
0.000144039
0.0472048
0.000312119
0.0470454
0.000512339
0.0468345
0.000749538
0.046563
0.00102949
0.0462201
0.00135962
0.0457936
0.00174852
0.0452683
0.0022072
0.0446272
0.0027489
0.0438478
0.00339091
0.0429123
0.00414308
0.00512895
0.0511411
-0.000399015
0.0511177
-0.000386047
0.0510887
-0.000358803
0.0510508
-0.000309535
0.051
-0.000238537
0.050932
-0.000144859
0.0508401
-2.39966e-05
0.0507299
0.000117855
0.0505841
0.000289877
0.0503997
0.000496552
0.0501698
0.000742226
0.049886
0.00103328
0.0495393
0.00137619
0.049118
0.00178098
0.0486096
0.00225688
0.0479972
0.00281961
0.0472648
0.00348131
0.0463846
0.00427106
0.0453497
0.00517799
0.00643379
0.0554106
-0.000285174
0.0552922
-0.000267652
0.055166
-0.000232582
0.0550301
-0.000173644
0.054881
-8.9449e-05
0.0547137
2.24794e-05
0.0545295
0.000160151
0.0543167
0.000330653
0.0540702
0.000536428
0.0537837
0.000783046
0.0534505
0.00107546
0.0530613
0.00142248
0.0526075
0.00182997
0.0520758
0.00231266
0.0514559
0.00287674
0.0507265
0.00354908
0.0498754
0.00433234
0.0488572
0.00528934
0.0476782
0.00635695
0.00789878
0.0600859
-3.19169e-05
0.0598284
-1.02093e-05
0.059561
3.4798e-05
0.0592841
0.000103302
0.0589958
0.0001988
0.0586928
0.000325526
0.0583672
0.000485757
0.0580136
0.000684227
0.0576265
0.000923591
0.0571984
0.00121115
0.0567229
0.0015509
0.0561892
0.00195616
0.0555903
0.00242889
0.0549085
0.00299443
0.0541394
0.00364592
0.0532507
0.00443772
0.052252
0.0053311
0.0510719
0.00646937
0.0497633
0.00766556
0.00955436
0.0650938
0.000402869
0.0646419
0.00044167
0.0641816
0.000495114
0.063716
0.000568882
0.0632423
0.000672475
0.0627537
0.000814137
0.0622434
0.000996084
0.0617052
0.00122245
0.0611343
0.00149449
0.0605223
0.00182312
0.0598644
0.00220886
0.0591466
0.00267389
0.0583666
0.00320887
0.057498
0.00386306
0.0565492
0.00459475
0.055459
0.00552793
0.0542771
0.00651293
0.052847
0.00789947
0.0513717
0.00914094
0.0114993
0.0703963
0.00113973
0.069679
0.00115893
0.06897
0.0012041
0.068266
0.00127291
0.0675585
0.00137993
0.0668372
0.00153548
0.0660954
0.00173787
0.0653276
0.0019903
0.0645307
0.00229134
0.063696
0.0026578
0.0628207
0.00308419
0.061889
0.0036056
0.0609054
0.00419247
0.0598382
0.00493025
0.0587188
0.0057141
0.0574645
0.00678229
0.0562022
0.00777518