/*--------------------------------*- C++ -*----------------------------------*\
| =========                 |                                                 |
| \\      /  F ield         | OpenFOAM: The Open Source CFD Toolbox           |
|  \\    /   O peration     | Version:  4.1                                   |
|   \\  /    A nd           | Web:      www.OpenFOAM.org                      |
|    \\/     M anipulation  |                                                 |
\*---------------------------------------------------------------------------*/
FoamFile
{
    version     2.0;
    format      ascii;
    class       volScalarField;
    location    "7.6";
    object      p;
}
// * * * * * * * * * * * * * * * * * * * * * * * * * * * * * * * * * * * * * //

dimensions      [0 2 -2 0 0 0 0];

internalField   nonuniform List<scalar> 
2000
(
-0.446304
-0.434742
-0.423677
-0.413505
-0.40452
-0.395903
-0.386226
-0.375688
-0.361278
-0.348995
-0.469485
-0.454011
-0.440266
-0.427397
-0.414754
-0.401256
-0.386143
-0.369403
-0.350442
-0.332586
-0.498067
-0.477848
-0.460875
-0.444226
-0.426079
-0.405921
-0.384025
-0.361213
-0.33766
-0.315001
-0.532156
-0.5063
-0.485313
-0.462966
-0.436956
-0.408449
-0.379178
-0.350459
-0.322587
-0.297594
-0.571154
-0.538709
-0.512393
-0.481547
-0.445272
-0.407314
-0.370536
-0.336197
-0.304713
-0.276793
-0.613041
-0.57353
-0.539388
-0.496874
-0.4486
-0.400868
-0.356891
-0.317486
-0.282538
-0.251897
-0.654226
-0.608012
-0.562296
-0.505401
-0.444548
-0.387519
-0.337026
-0.293073
-0.254957
-0.221526
-0.689779
-0.637687
-0.5768
-0.503967
-0.431049
-0.365779
-0.309683
-0.261846
-0.220814
-0.184806
-0.714546
-0.656868
-0.578835
-0.490079
-0.406415
-0.334282
-0.273675
-0.222743
-0.179328
-0.141325
-0.724047
-0.660234
-0.564749
-0.461788
-0.36933
-0.291891
-0.227947
-0.174832
-0.12982
-0.0908111
-0.34265
-0.349247
-0.352455
-0.355325
-0.358239
-0.360858
-0.362891
-0.364126
-0.364519
-0.364324
-0.346471
-0.352491
-0.35549
-0.35832
-0.361256
-0.363929
-0.366025
-0.36726
-0.367502
-0.367341
-0.353456
-0.358328
-0.360904
-0.363542
-0.366385
-0.369022
-0.371099
-0.372268
-0.372172
-0.371564
-0.362428
-0.365765
-0.36761
-0.369756
-0.372227
-0.374581
-0.376412
-0.377405
-0.37692
-0.373935
-0.372227
-0.373848
-0.374575
-0.375812
-0.377516
-0.379267
-0.380587
-0.381063
-0.379892
-0.37541
-0.38208
-0.381966
-0.381145
-0.381034
-0.381552
-0.382382
-0.382976
-0.382778
-0.381548
-0.373687
-0.391827
-0.389875
-0.387377
-0.385449
-0.384411
-0.38406
-0.383752
-0.382554
-0.382134
-0.369968
-0.401991
-0.398163
-0.393704
-0.389761
-0.386986
-0.385302
-0.384051
-0.38154
-0.381758
-0.367802
-0.413616
-0.407698
-0.401148
-0.395165
-0.39062
-0.387387
-0.384605
-0.380739
-0.379105
-0.366694
-0.427985
-0.419559
-0.410834
-0.402837
-0.396351
-0.390992
-0.385417
-0.37928
-0.372242
-0.362378
-0.363712
-0.36167
-0.358342
-0.353531
-0.347002
-0.33853
-0.327932
-0.315126
-0.300095
-0.282702
-0.262887
-0.240656
-0.216086
-0.189312
-0.160508
-0.129965
-0.0983413
-0.0664185
-0.0331137
0.00266448
-0.367886
-0.366088
-0.362983
-0.358447
-0.352187
-0.343932
-0.333442
-0.32114
-0.306443
-0.289284
-0.269636
-0.247522
-0.223026
-0.196299
-0.167521
-0.136879
-0.104802
-0.0721643
-0.0387953
0.00123454
-0.374419
-0.372906
-0.370176
-0.36618
-0.360488
-0.352871
-0.343298
-0.331207
-0.316804
-0.299944
-0.28054
-0.258588
-0.234167
-0.207427
-0.178491
-0.147551
-0.115068
-0.0812763
-0.0459738
-0.00803966
-0.381553
-0.379385
-0.377119
-0.373739
-0.368621
-0.361679
-0.352715
-0.341361
-0.327546
-0.311133
-0.292044
-0.270269
-0.245862
-0.218953
-0.18972
-0.158348
-0.1251
-0.0900622
-0.0535585
-0.0142883
-0.384227
-0.384626
-0.382267
-0.379107
-0.374895
-0.368798
-0.360414
-0.34967
-0.336374
-0.320369
-0.301558
-0.279909
-0.255457
-0.228313
-0.198636
-0.166616
-0.132511
-0.0962627
-0.0586427
-0.0177002
-0.38547
-0.387701
-0.385362
-0.382321
-0.378325
-0.372719
-0.3649
-0.354603
-0.34167
-0.325949
-0.307312
-0.285714
-0.261172
-0.233798
-0.203738
-0.171181
-0.136408
-0.0993545
-0.0608648
-0.0193617
-0.382422
-0.387569
-0.385433
-0.381876
-0.378147
-0.372943
-0.365398
-0.3553
-0.342522
-0.326907
-0.308308
-0.286695
-0.262066
-0.234564
-0.204306
-0.171554
-0.136531
-0.0994026
-0.060729
-0.0199523
-0.379674
-0.384508
-0.381466
-0.377544
-0.373772
-0.368535
-0.360988
-0.350925
-0.338165
-0.322554
-0.303958
-0.282393
-0.257834
-0.23049
-0.200411
-0.168011
-0.133338
-0.0969568
-0.0589086
-0.0198498
-0.376314
-0.378001
-0.373672
-0.369223
-0.364788
-0.359064
-0.351373
-0.341347
-0.328665
-0.313191
-0.294808
-0.273588
-0.24947
-0.222743
-0.193369
-0.161931
-0.128263
-0.0933151
-0.0565482
-0.0195627
-0.369297
-0.36838
-0.363295
-0.357373
-0.351223
-0.344467
-0.336371
-0.326268
-0.313706
-0.298564
-0.280704
-0.260224
-0.237012
-0.211411
-0.183303
-0.1534
-0.121383
-0.0884777
-0.0537424
-0.0192138
-0.345504
-0.350927
-0.347657
-0.340769
-0.333412
-0.32598
-0.317539
-0.307208
-0.294511
-0.279399
-0.261818
-0.241917
-0.219616
-0.195259
-0.168734
-0.14075
-0.11096
-0.0806329
-0.0487059
-0.0174806
-0.320186
-0.330671
-0.328312
-0.319819
-0.31084
-0.302609
-0.293979
-0.283728
-0.271255
-0.256558
-0.239669
-0.220788
-0.199842
-0.177164
-0.152619
-0.126899
-0.099626
-0.0720666
-0.0431438
-0.015321
-0.293194
-0.306736
-0.305271
-0.296416
-0.286964
-0.278659
-0.270327
-0.260573
-0.248716
-0.234784
-0.218872
-0.201224
-0.181777
-0.160854
-0.138301
-0.114788
-0.0899274
-0.0649663
-0.0388599
-0.0139765
-0.266119
-0.280866
-0.280686
-0.272692
-0.263699
-0.255755
-0.247893
-0.238755
-0.227642
-0.214588
-0.199721
-0.183315
-0.165322
-0.146062
-0.125373
-0.103903
-0.0812629
-0.0586535
-0.0350342
-0.0126312
-0.239451
-0.254595
-0.255945
-0.249436
-0.241394
-0.234047
-0.226735
-0.218264
-0.207961
-0.195848
-0.182059
-0.166887
-0.150301
-0.132619
-0.113679
-0.094106
-0.073505
-0.0530229
-0.0316335
-0.0114496
-0.213772
-0.22904
-0.231844
-0.226975
-0.220108
-0.213522
-0.206849
-0.199099
-0.189651
-0.178517
-0.16582
-0.151861
-0.136624
-0.120433
-0.103121
-0.0852943
-0.0665526
-0.0479928
-0.0286078
-0.0104023
-0.189723
-0.204817
-0.2088
-0.205505
-0.1999
-0.194192
-0.188237
-0.181246
-0.172672
-0.162521
-0.150902
-0.138118
-0.124163
-0.109365
-0.0935612
-0.0773362
-0.0602872
-0.0434688
-0.0258889
-0.00946249
-0.167505
-0.182137
-0.187022
-0.185168
-0.180833
-0.176065
-0.170878
-0.164664
-0.156956
-0.147769
-0.137195
-0.125536
-0.112791
-0.0992947
-0.0848824
-0.070127
-0.0546204
-0.0393832
-0.0234343
-0.0086182
-0.14706
-0.161077
-0.166646
-0.166085
-0.162975
-0.15916
-0.154757
-0.149316
-0.142451
-0.134193
-0.12462
-0.114028
-0.10242
-0.0901324
-0.0770024
-0.0635929
-0.0494905
-0.0356895
-0.0212157
-0.00785914
-0.12835
-0.141697
-0.147785
-0.148364
-0.146397
-0.143507
-0.139876
-0.135186
-0.12913
-0.121754
-0.113127
-0.103538
-0.0929872
-0.0818172
-0.0698629
-0.0576815
-0.0448537
-0.0323541
-0.0192123
-0.00717696
-0.111398
-0.12405
-0.130516
-0.132083
-0.131159
-0.129142
-0.12625
-0.122274
-0.11698
-0.110431
-0.102686
-0.0940279
-0.0844531
-0.074307
-0.0634237
-0.0523562
-0.0406797
-0.0293542
-0.0174104
-0.00656582
-0.0962123
-0.108158
-0.114886
-0.117302
-0.117314
-0.116102
-0.1139
-0.110592
-0.106003
-0.100216
-0.0932829
-0.0854769
-0.0767917
-0.0675745
-0.057658
-0.0475926
-0.0369482
-0.026674
-0.0158005
-0.00602169
-0.082774
-0.0940267
-0.100927
-0.104066
-0.104907
-0.104424
-0.102852
-0.100152
-0.0962049
-0.0911095
-0.0849103
-0.0778737
-0.0699882
-0.0616029
-0.0525488
-0.0433748
-0.033646
-0.0243034
-0.0143766
-0.00554174
-0.0710586
-0.081659
-0.0886653
-0.0924123
-0.0939767
-0.0941384
-0.0931294
-0.0909725
-0.087597
-0.0831162
-0.0775687
-0.0712137
-0.0640349
-0.0563825
-0.0480857
-0.0396929
-0.0307644
-0.0222358
-0.0131347
-0.00512409
-0.0610464
-0.0710552
-0.0781199
-0.0823714
-0.0845533
-0.0852737
-0.0847542
-0.0830698
-0.0801908
-0.0762437
-0.0712614
-0.0654968
-0.0589287
-0.0519084
-0.044263
-0.036541
-0.0282985
-0.020467
-0.0120724
-0.00476748
-0.0527195
-0.0622135
-0.0693051
-0.0739658
-0.0766612
-0.0778512
-0.0777445
-0.0764584
-0.0739975
-0.0704997
-0.065993
-0.0607248
-0.0546693
-0.0481784
-0.0410778
-0.0339158
-0.0262452
-0.0189947
-0.0111881
-0.00447112
-0.0460631
-0.0551332
-0.0622342
-0.0672161
-0.0703218
-0.0718897
-0.072116
-0.0711513
-0.0690277
-0.0658924
-0.0617693
-0.0569009
-0.051258
-0.0451923
-0.0385289
-0.0318157
-0.0246033
-0.0178175
-0.0104811
-0.0042345
-0.0410622
-0.0498146
-0.0569212
-0.0621435
-0.0655573
-0.067409
-0.0678852
-0.067162
-0.0652924
-0.0624303
-0.0585965
-0.0540294
-0.0486971
-0.0429515
-0.0366168
-0.0302407
-0.0233722
-0.0169352
-0.00995143
-0.00405718
-0.0376721
-0.0462297
-0.0533559
-0.0587488
-0.0623734
-0.0644163
-0.0650598
-0.0644978
-0.0627981
-0.0601188
-0.0564788
-0.0521131
-0.0469888
-0.0414565
-0.035342
-0.0291898
-0.0225525
-0.0163459
-0.00960142
-0.00393623
-0.0358715
-0.044356
-0.0515196
-0.0570179
-0.0607607
-0.0629062
-0.0636376
-0.063158
-0.0615458
-0.0589584
-0.055418
-0.051152
-0.0461352
-0.0407061
-0.0347073
-0.0286597
-0.0221486
-0.0160423
-0.00943805
-0.00385926
-0.0589724
-0.109078
-0.15305
-0.190948
-0.223004
-0.24977
-0.272264
-0.291766
-0.308338
-0.332714
-0.0321839
-0.0805579
-0.123136
-0.160379
-0.192222
-0.21989
-0.242553
-0.264453
-0.280213
-0.304351
-0.0080892
-0.0542111
-0.0947542
-0.130779
-0.161552
-0.189482
-0.211719
-0.234563
-0.250108
-0.272669
0.0134734
-0.030506
-0.0692161
-0.104175
-0.133952
-0.161734
-0.183646
-0.20627
-0.222654
-0.244294
0.0327267
-0.009398
-0.0466096
-0.0806272
-0.109644
-0.136974
-0.158823
-0.180913
-0.198083
-0.218444
0.0498984
0.00943244
-0.0264817
-0.0595243
-0.0878687
-0.114507
-0.136276
-0.157623
-0.174795
-0.193829
0.0652452
0.0263107
-0.0084178
-0.0404314
-0.0680969
-0.0938997
-0.115366
-0.135854
-0.152658
-0.170771
0.0789896
0.0414737
0.00784456
-0.0231417
-0.0501156
-0.0750618
-0.0960869
-0.115833
-0.132277
-0.149649
0.0913005
0.0550838
0.0224705
-0.00754098
-0.0338373
-0.0579988
-0.0785692
-0.0977145
-0.113779
-0.130352
0.102305
0.0672626
0.0355819
0.00646694
-0.0191859
-0.0426503
-0.0627724
-0.0813541
-0.0969832
-0.112728
0.112101
0.0781088
0.0472785
0.0189774
-0.0060709
-0.0289008
-0.0485742
-0.066598
-0.081797
-0.0967751
0.120762
0.0877044
0.0576443
0.0300787
0.00559364
-0.0166513
-0.0358964
-0.0534005
-0.0682231
-0.0825167
0.128346
0.0961162
0.066748
0.039843
0.0158727
-0.00584205
-0.0247031
-0.0417469
-0.0562467
-0.0699322
0.134895
0.103396
0.0746433
0.0483252
0.024814
0.00356821
-0.0149595
-0.0316032
-0.045825
-0.0589822
0.140444
0.109586
0.0813718
0.0555664
0.0324564
0.0116176
-0.00662529
-0.0229285
-0.0369183
-0.0496349
0.145032
0.114727
0.0869711
0.0616024
0.0388354
0.0183415
0.0003354
-0.0156896
-0.0294974
-0.0418651
0.148657
0.11884
0.0914668
0.0664613
0.0439797
0.0237677
0.00594932
-0.00986219
-0.0235404
-0.0356514
0.151342
0.121918
0.0948733
0.0701698
0.0479193
0.0279263
0.010246
-0.00541776
-0.0190207
-0.0309696
0.153069
0.123969
0.0972017
0.0727473
0.0506834
0.030855
0.0132707
-0.00230342
-0.0158805
-0.027762
0.15378
0.124914
0.0983387
0.0740656
0.0521422
0.0324334
0.0149181
-0.000598647
-0.0141653
-0.0260331
0.686067
0.688386
0.680377
0.662733
0.636463
0.600599
0.550926
0.48044
0.386779
0.318483
0.614273
0.609444
0.589419
0.561584
0.526738
0.481555
0.420423
0.336019
0.226287
0.145593
0.538806
0.524913
0.495051
0.458788
0.415797
0.361265
0.289013
0.191732
0.0673533
-0.0230973
0.45297
0.432414
0.396742
0.354693
0.304851
0.241811
0.159566
0.0513606
-0.0859385
-0.181864
0.363089
0.337299
0.297627
0.251225
0.195727
0.125415
0.0345726
-0.0818822
-0.2293
-0.324198
0.274688
0.244116
0.201183
0.151218
0.0910855
0.0149012
-0.0830833
-0.206466
-0.353517
-0.447779
0.190096
0.155281
0.109884
0.0572456
-0.00634235
-0.0866788
-0.189238
-0.316041
-0.458405
-0.55004
0.110519
0.0723008
0.0254674
-0.0287415
-0.0943744
-0.177071
-0.281165
-0.407468
-0.542802
-0.628917
0.0366752
-0.0036923
-0.0505097
-0.105269
-0.171951
-0.254784
-0.357555
-0.479668
-0.604823
-0.683582
-0.0321379
-0.0714137
-0.117415
-0.171827
-0.237869
-0.318917
-0.417797
-0.532074
-0.643695
-0.714663
1.14422
1.164
1.18669
1.21236
1.24094
1.27213
1.30502
1.33703
1.3647
1.395
1.13785
1.15639
1.17812
1.20278
1.23011
1.25975
1.29074
1.32041
1.34525
1.37336
1.12483
1.14091
1.16076
1.18345
1.20831
1.23488
1.26207
1.28706
1.30645
1.32999
1.10463
1.11713
1.13424
1.15404
1.17529
1.19735
1.21899
1.23709
1.24848
1.26527
1.07658
1.08451
1.09817
1.11427
1.13086
1.14709
1.16153
1.17068
1.17165
1.17976
1.04002
1.04244
1.05198
1.0637
1.07474
1.08401
1.08983
1.08824
1.07656
1.07438
0.994529
0.990806
0.995828
1.0026
1.00725
1.00849
1.0044
0.990532
0.964252
0.950498
0.938375
0.928025
0.928906
0.930807
0.928642
0.921126
0.906211
0.878878
0.836491
0.809997
0.872043
0.855429
0.852924
0.84942
0.839592
0.822704
0.796411
0.754953
0.695624
0.655346
0.787557
0.772836
0.769846
0.760397
0.742113
0.715369
0.677247
0.621203
0.544559
0.49006
1.00098
1.00286
1.00538
1.00843
1.01168
1.01505
1.01864
1.02256
1.0269
1.03173
1.03715
1.04318
1.04991
1.05746
1.06595
1.0755
1.08625
1.09833
1.11191
1.12711
1.00093
1.0028
1.00526
1.00819
1.01131
1.01456
1.01804
1.02183
1.02603
1.03071
1.03593
1.04175
1.04825
1.05553
1.0637
1.07289
1.08319
1.09475
1.10769
1.12208
1.0009
1.00267
1.00494
1.00765
1.01054
1.01356
1.01679
1.02033
1.02425
1.02861
1.03345
1.03884
1.04486
1.05159
1.05912
1.06754
1.07694
1.08741
1.09903
1.11173
1.00083
1.00242
1.0044
1.00676
1.0093
1.01198
1.01484
1.01798
1.02145
1.02533
1.02959
1.03432
1.03959
1.04545
1.05198
1.0592
1.06719
1.07595
1.08548
1.09553
1.0007
1.00203
1.00362
1.00551
1.00757
1.00977
1.01212
1.01471
1.01758
1.02075
1.02421
1.02803
1.03226
1.03693
1.04204
1.04759
1.05357
1.05991
1.0665
1.07277
1.00051
1.00147
1.00253
1.00383
1.00529
1.00687
1.00856
1.01043
1.01254
1.01475
1.01716
1.01981
1.0227
1.02578
1.02903
1.03236
1.0357
1.0388
1.04151
1.04274
1.00024
1.00069
1.00112
1.00169
1.0024
1.00322
1.00413
1.00515
1.00616
1.00723
1.00838
1.00958
1.01078
1.01186
1.01275
1.01323
1.01318
1.01207
1.00985
1.00474
0.999869
0.99966
0.99934
0.999057
0.998888
0.998793
0.998715
0.99858
0.998405
0.998165
0.997818
0.997263
0.996414
0.99507
0.993119
0.990128
0.985995
0.979695
0.971406
0.957959
0.999407
0.998346
0.997165
0.995952
0.994778
0.993613
0.992378
0.990994
0.98943
0.987615
0.985477
0.982842
0.979595
0.975385
0.970119
0.963029
0.954285
0.941906
0.927058
0.90318
0.998963
0.996763
0.994555
0.99238
0.990152
0.987798
0.985259
0.982453
0.979311
0.975702
0.971525
0.966498
0.960491
0.952891
0.943652
0.931277
0.916322
0.894715
0.869929
0.829966
0.998418
0.99529
0.992187
0.989
0.985622
0.981981
0.978027
0.97366
0.968781
0.963202
0.956781
0.949153
0.940138
0.928978
0.915537
0.898102
0.87685
0.847211
0.809792
0.75046
0.997962
0.993895
0.989851
0.985636
0.981124
0.976251
0.970971
0.965169
0.958727
0.951417
0.943085
0.933318
0.921938
0.908133
0.891771
0.871171
0.846416
0.814115
0.775287
0.725689
0.997505
0.992513
0.987529
0.982271
0.97661
0.970507
0.963925
0.956732
0.948798
0.939872
0.929797
0.918148
0.904757
0.888846
0.870303
0.847704
0.821228
0.788596
0.750909
0.705055
0.996992
0.991159
0.985299
0.978977
0.972125
0.964765
0.956877
0.948313
0.938929
0.92846
0.916753
0.903389
0.888222
0.870531
0.850264
0.826213
0.798706
0.765837
0.728836
0.684467
0.996471
0.989859
0.983192
0.975806
0.967732
0.959096
0.949911
0.940014
0.929242
0.917324
0.904114
0.889213
0.872504
0.853329
0.831707
0.806563
0.778351
0.745288
0.708849
0.665918
0.995954
0.988607
0.981217
0.972798
0.963493
0.953578
0.94312
0.931941
0.919861
0.9066
0.892026
0.875765
0.857735
0.837334
0.814644
0.788688
0.760007
0.726961
0.691156
0.649709
0.995425
0.987404
0.979399
0.970001
0.959472
0.948283
0.936583
0.924184
0.910881
0.896386
0.880583
0.863126
0.843968
0.822558
0.799025
0.772487
0.743529
0.710685
0.675529
0.635446
0.994884
0.986267
0.977776
0.967464
0.955725
0.943274
0.930368
0.916816
0.90238
0.886761
0.869856
0.851352
0.831229
0.808993
0.784796
0.757858
0.728762
0.696221
0.661685
0.622835
0.994338
0.985212
0.976375
0.965222
0.952292
0.938595
0.924528
0.909896
0.894418
0.877782
0.859894
0.840477
0.819533
0.796623
0.771906
0.744705
0.715566
0.683378
0.649428
0.611711
0.993789
0.984252
0.975215
0.963295
0.949195
0.934276
0.919101
0.90347
0.887044
0.869494
0.850734
0.830526
0.808884
0.785427
0.760305
0.732941
0.703823
0.672014
0.638621
0.601947
0.993247
0.983408
0.974312
0.961683
0.946433
0.93033
0.914115
0.89757
0.88029
0.861927
0.842399
0.821509
0.799277
0.775378
0.749944
0.72249
0.693437
0.662015
0.629146
0.593428
0.992721
0.982715
0.973675
0.960364
0.94398
0.926752
0.909585
0.892221
0.874179
0.855098
0.834901
0.813429
0.790702
0.766448
0.740773
0.713284
0.684326
0.653284
0.620902
0.58605
0.992218
0.982206
0.973276
0.959259
0.941776
0.923526
0.905522
0.887435
0.868722
0.849016
0.828245
0.806283
0.783144
0.758606
0.73275
0.705262
0.676416
0.645737
0.613798
0.579722
0.991744
0.981852
0.972958
0.958195
0.939731
0.920637
0.901931
0.883216
0.863917
0.843682
0.822431
0.800064
0.776586
0.751825
0.725833
0.698373
0.669644
0.639299
0.607759
0.574367
0.991334
0.981431
0.972311
0.95688
0.937773
0.918114
0.898834
0.87956
0.859761
0.839096
0.81746
0.794764
0.771011
0.746075
0.719986
0.692567
0.663954
0.633909
0.602718
0.569916
0.990762
0.97999
0.970183
0.954728
0.935801
0.915984
0.896229
0.876446
0.856239
0.835252
0.813323
0.790369
0.766399
0.741331
0.715172
0.687802
0.659297
0.629512
0.598619
0.566313
0.991447
0.977766
0.966005
0.951597
0.933956
0.91437
0.894189
0.873939
0.853411
0.832188
0.810037
0.786881
0.76274
0.737573
0.711368
0.684045
0.655635
0.626065
0.595416
0.56351
0.99248
0.974149
0.960472
0.948198
0.9324
0.913141
0.892639
0.872065
0.851322
0.829925
0.807596
0.784283
0.760015
0.734778
0.708543
0.68126
0.652928
0.623528
0.593074
0.561477
0.995772
0.979381
0.963722
0.948897
0.931615
0.91189
0.89132
0.870758
0.849956
0.828431
0.805959
0.782535
0.758189
0.732913
0.706663
0.679412
0.651137
0.621861
0.591556
0.560195
0.988711
0.983183
0.977691
0.95951
0.935507
0.912141
0.890802
0.870314
0.849495
0.827826
0.805214
0.781702
0.757302
0.731999
0.705737
0.678499
0.650251
0.621039
0.590822
0.559628
0.679339
0.604059
0.531356
0.452303
0.368476
0.285977
0.207198
0.132359
0.062001
-0.00217347
0.670188
0.592343
0.516488
0.442486
0.365077
0.287979
0.214626
0.145198
0.0804499
0.0216592
0.654371
0.580284
0.504416
0.434698
0.364064
0.292436
0.223689
0.158926
0.0986414
0.0429912
0.637583
0.569099
0.495181
0.428098
0.362856
0.296442
0.231855
0.170957
0.114308
0.0617905
0.621865
0.5585
0.487747
0.422897
0.361859
0.300254
0.239572
0.181971
0.128436
0.0786192
0.607594
0.548562
0.481548
0.419023
0.361224
0.303753
0.246703
0.19204
0.141148
0.0936853
0.594766
0.539405
0.476229
0.416197
0.36101
0.306962
0.253208
0.20122
0.152609
0.107194
0.583332
0.531119
0.471615
0.41416
0.361202
0.309949
0.25909
0.209548
0.162947
0.119325
0.573222
0.523721
0.467598
0.412691
0.361722
0.312756
0.264382
0.217052
0.172252
0.130215
0.564342
0.517179
0.464102
0.411627
0.362469
0.3154
0.269125
0.223766
0.18059
0.139966
0.556596
0.511442
0.461065
0.410848
0.363347
0.317876
0.273359
0.229725
0.188008
0.148651
0.549892
0.50645
0.458432
0.410266
0.364272
0.32016
0.277108
0.234962
0.194548
0.156325
0.544144
0.502146
0.456156
0.409811
0.36517
0.322221
0.280387
0.239509
0.200241
0.163032
0.539279
0.498473
0.454194
0.409429
0.36598
0.324022
0.283198
0.243388
0.205117
0.168803
0.535231
0.495383
0.45251
0.409079
0.366652
0.325528
0.285533
0.246612
0.2092
0.173668
0.531944
0.492832
0.451075
0.408728
0.367146
0.326706
0.28738
0.249184
0.212494
0.177669
0.529368
0.49078
0.449862
0.408351
0.367434
0.327535
0.288737
0.251116
0.214988
0.180679
0.527466
0.489188
0.448831
0.407904
0.36747
0.327978
0.289589
0.252427
0.216784
0.182963
0.526243
0.488067
0.447966
0.407326
0.367158
0.327932
0.289846
0.253045
0.217805
0.184392
0.525751
0.487583
0.447487
0.406822
0.366648
0.327478
0.289523
0.25292
0.217909
0.184752
)
;

boundaryField
{
    bottom
    {
        type            symmetryPlane;
    }
    right
    {
        type            fixedValue;
        value           uniform 0;
    }
    top
    {
        type            symmetryPlane;
    }
    left
    {
        type            fixedValue;
        value           uniform 1;
    }
    cylinder
    {
        type            zeroGradient;
    }
    defaultFaces
    {
        type            empty;
    }
}


// ************************************************************************* //
