/*--------------------------------*- C++ -*----------------------------------*\
| =========                 |                                                 |
| \\      /  F ield         | OpenFOAM: The Open Source CFD Toolbox           |
|  \\    /   O peration     | Version:  4.1                                   |
|   \\  /    A nd           | Web:      www.OpenFOAM.org                      |
|    \\/     M anipulation  |                                                 |
\*---------------------------------------------------------------------------*/
FoamFile
{
    version     2.0;
    format      ascii;
    class       volScalarField;
    location    "2.7";
    object      p;
}
// * * * * * * * * * * * * * * * * * * * * * * * * * * * * * * * * * * * * * //

dimensions      [0 2 -2 0 0 0 0];

internalField   nonuniform List<scalar> 
2000
(
0.0899684
0.0983826
0.106322
0.116457
0.128639
0.141604
0.154154
0.165493
0.175039
0.181893
0.081524
0.0910073
0.100411
0.112593
0.127125
0.142383
0.156978
0.170013
0.180832
0.189122
0.0742893
0.08491
0.0961062
0.110738
0.127933
0.145659
0.162359
0.177129
0.189438
0.199398
0.0687784
0.0805997
0.0939249
0.111367
0.131446
0.151696
0.170443
0.186838
0.20049
0.211761
0.0655658
0.0786419
0.094413
0.114955
0.138023
0.160749
0.181418
0.19929
0.214141
0.226555
0.0652734
0.079643
0.0981235
0.121947
0.147975
0.173017
0.195402
0.214552
0.230434
0.243821
0.0685466
0.0842231
0.105588
0.132738
0.161564
0.188666
0.212507
0.232713
0.249462
0.263657
0.0760197
0.0929723
0.117297
0.147655
0.178982
0.207804
0.232799
0.253823
0.271272
0.286104
0.0882758
0.106418
0.133655
0.166936
0.200347
0.230482
0.25629
0.277878
0.295844
0.311105
0.105805
0.124991
0.154951
0.19071
0.225687
0.25668
0.282945
0.304823
0.323072
0.338482
0.161532
0.163879
0.167911
0.172943
0.178141
0.182738
0.18614
0.187957
0.188011
0.186294
0.159669
0.162157
0.16619
0.17121
0.176422
0.181077
0.184587
0.186561
0.186825
0.18535
0.156022
0.158799
0.162841
0.167846
0.1731
0.177885
0.181622
0.183916
0.184593
0.183597
0.150776
0.153921
0.158025
0.163046
0.168404
0.17342
0.177523
0.180306
0.181588
0.181289
0.144121
0.14774
0.151966
0.157079
0.162649
0.168037
0.172672
0.17612
0.178181
0.178769
0.136312
0.140508
0.144941
0.150266
0.156209
0.162157
0.167518
0.171811
0.17481
0.176436
0.127619
0.132492
0.137245
0.142958
0.149492
0.156231
0.16253
0.167847
0.171923
0.174704
0.118329
0.123969
0.129195
0.135525
0.142926
0.150726
0.15818
0.164666
0.169918
0.173884
0.108741
0.115231
0.121118
0.128357
0.136965
0.146143
0.155002
0.16283
0.16932
0.174125
0.0991718
0.106587
0.113367
0.121861
0.13206
0.142972
0.153558
0.163058
0.171027
0.176153
0.182817
0.178025
0.172142
0.165265
0.157528
0.149088
0.140091
0.130657
0.120888
0.110865
0.100653
0.0903048
0.0798594
0.0693465
0.0587879
0.0481994
0.0375902
0.0269751
0.0163146
0.00578576
0.181884
0.177314
0.171732
0.165084
0.157501
0.149172
0.140257
0.130881
0.121147
0.111141
0.100934
0.0905784
0.080117
0.0695809
0.0589931
0.0483708
0.0377239
0.027069
0.0163645
0.00580065
0.180169
0.17603
0.171013
0.164794
0.157503
0.149385
0.140626
0.131358
0.12169
0.111716
0.101513
0.0911413
0.0806456
0.0700609
0.059413
0.0487214
0.0379978
0.0272607
0.0164702
0.00581163
0.177929
0.174392
0.17014
0.164496
0.157601
0.149777
0.141236
0.132116
0.122536
0.112603
0.102402
0.092001
0.0814507
0.0707908
0.0600509
0.0492539
0.0384141
0.0275525
0.0166326
0.00583142
0.175529
0.172717
0.169338
0.164345
0.157911
0.150437
0.142155
0.133209
0.12373
0.113837
0.103629
0.0931819
0.0825529
0.0717879
0.0609215
0.0499806
0.0389829
0.0279527
0.0168583
0.00586524
0.173385
0.171365
0.168866
0.164521
0.158564
0.151466
0.143462
0.134698
0.125317
0.115456
0.105225
0.0947081
0.0839717
0.0730682
0.0620379
0.0509123
0.0397133
0.0284686
0.0171535
0.0059182
0.171935
0.170727
0.169024
0.165245
0.159723
0.152983
0.145244
0.136647
0.12735
0.117504
0.107227
0.0966125
0.0857361
0.0746571
0.063422
0.0520679
0.040621
0.0291128
0.0175274
0.00599674
0.171453
0.171024
0.170005
0.166678
0.161529
0.155098
0.147575
0.139104
0.129856
0.11999
0.109634
0.0988897
0.0878395
0.0765495
0.065072
0.0534488
0.0417105
0.0298916
0.017986
0.00610663
0.171636
0.172064
0.17166
0.168752
0.164004
0.157892
0.150578
0.142217
0.132991
0.123065
0.11258
0.101648
0.0903645
0.0788035
0.0670252
0.0550773
0.0429947
0.0308131
0.0185335
0.00625022
0.17368
0.175048
0.174791
0.17204
0.167483
0.161506
0.154288
0.145988
0.136771
0.126793
0.116189
0.105075
0.093548
0.0816891
0.0695648
0.0572299
0.044726
0.0320924
0.0193345
0.00651829
0.183729
0.181702
0.180232
0.176833
0.171609
0.165039
0.157352
0.148666
0.139113
0.128836
0.117966
0.106613
0.0948688
0.0828093
0.0704979
0.057986
0.0453141
0.0325162
0.0196051
0.00661054
0.191677
0.186988
0.183615
0.178959
0.17275
0.165433
0.157239
0.148233
0.138494
0.128126
0.117231
0.105898
0.0942027
0.082209
0.0699722
0.0575378
0.0449438
0.0322192
0.0193909
0.00647524
0.198718
0.192287
0.187343
0.181523
0.174436
0.166437
0.157729
0.148358
0.138368
0.127837
0.116846
0.105467
0.0937605
0.0817823
0.069579
0.0571905
0.0446524
0.0319885
0.0192394
0.00638979
0.205371
0.197595
0.191281
0.184354
0.176426
0.167775
0.158563
0.148816
0.138557
0.12784
0.116727
0.105273
0.0935282
0.0815379
0.0693419
0.0569744
0.0444688
0.0318429
0.0191469
0.00633083
0.211634
0.202722
0.195183
0.187238
0.17853
0.169267
0.159572
0.149453
0.138917
0.128
0.116747
0.105201
0.0933998
0.0813803
0.0691759
0.0568151
0.0443286
0.0317278
0.0190712
0.00627862
0.217435
0.207569
0.198957
0.190106
0.180693
0.170867
0.160716
0.150236
0.139424
0.1283
0.116895
0.105242
0.0933691
0.0813052
0.0690779
0.0567102
0.0442302
0.031643
0.0190138
0.00623657
0.222734
0.212085
0.202549
0.192903
0.18286
0.172523
0.161949
0.151126
0.140044
0.128712
0.117151
0.105381
0.0934254
0.0813056
0.0690435
0.0566574
0.0441725
0.0315882
0.0189753
0.00620462
0.227532
0.216245
0.205921
0.195585
0.184985
0.174186
0.163225
0.152083
0.140743
0.129207
0.117488
0.105597
0.0935525
0.0813684
0.0690627
0.0566488
0.0441497
0.0315592
0.0189526
0.00618117
0.231846
0.220038
0.209048
0.198116
0.187027
0.175818
0.164507
0.15307
0.141488
0.129758
0.117883
0.105872
0.093734
0.0814807
0.069125
0.0566765
0.0441559
0.0315519
0.0189434
0.00616499
0.235699
0.223464
0.211915
0.200473
0.18896
0.177389
0.165763
0.154058
0.142253
0.130339
0.118315
0.106186
0.0939548
0.08163
0.0692205
0.0567328
0.0441851
0.0315621
0.0189451
0.00615491
0.239116
0.22653
0.214513
0.202638
0.190759
0.178871
0.166966
0.155021
0.143012
0.130928
0.118765
0.106522
0.0942006
0.0818043
0.0693397
0.0568101
0.0442318
0.0315858
0.0189554
0.00614978
0.242121
0.229247
0.21684
0.2046
0.192408
0.180245
0.168096
0.155937
0.143745
0.131507
0.119215
0.106866
0.0944582
0.0819926
0.0694734
0.0569011
0.0442904
0.0316191
0.0189718
0.00614849
0.244737
0.231626
0.218896
0.206351
0.193893
0.181495
0.169135
0.156789
0.144435
0.132059
0.11965
0.107204
0.0947158
0.082185
0.0696133
0.0569992
0.0443559
0.0316584
0.0189922
0.00615001
0.246984
0.23368
0.220684
0.207886
0.195206
0.182609
0.170068
0.157561
0.145066
0.132569
0.120057
0.107524
0.0949631
0.0823724
0.0697519
0.0570983
0.0444235
0.0317002
0.0190146
0.00615343
0.24888
0.235419
0.222209
0.209203
0.19634
0.183577
0.170885
0.158242
0.145628
0.133026
0.120425
0.107816
0.0951911
0.0825472
0.0698828
0.0571931
0.0444891
0.0317417
0.0190372
0.0061579
0.25044
0.236855
0.223473
0.210302
0.197291
0.184393
0.171578
0.158823
0.146109
0.133421
0.120745
0.108071
0.0953923
0.0827027
0.0700003
0.0572792
0.0445493
0.0317802
0.0190584
0.00616274
0.251678
0.237996
0.22448
0.211181
0.198055
0.185052
0.172139
0.159295
0.146503
0.133746
0.121009
0.108284
0.0955606
0.0828336
0.0700998
0.0573526
0.0446011
0.0318137
0.019077
0.00616736
0.252602
0.238847
0.225234
0.21184
0.19863
0.185549
0.172564
0.159654
0.146803
0.133994
0.121213
0.108448
0.0956909
0.0829355
0.0701777
0.0574103
0.044642
0.0318404
0.0190919
0.00617135
0.253224
0.239418
0.225738
0.212281
0.199014
0.185882
0.172849
0.159896
0.147006
0.134162
0.12135
0.108559
0.0957798
0.0830052
0.0702311
0.0574501
0.0446702
0.0318591
0.0191023
0.00617535
0.253563
0.239719
0.225997
0.212504
0.199208
0.186049
0.172992
0.160018
0.147108
0.134247
0.12142
0.108615
0.0958248
0.0830405
0.0702582
0.0574704
0.0446843
0.0318693
0.0191056
0.00618334
0.351121
0.324273
0.299601
0.277285
0.25741
0.239942
0.224859
0.211922
0.201134
0.190614
0.361761
0.335791
0.311798
0.289858
0.270051
0.252297
0.236675
0.222673
0.210936
0.199104
0.371022
0.345936
0.322602
0.301037
0.281326
0.263346
0.24729
0.232528
0.220159
0.207643
0.379006
0.354644
0.331836
0.310586
0.290995
0.272915
0.256627
0.241451
0.228523
0.215519
0.385888
0.362139
0.339787
0.318831
0.299381
0.281285
0.264838
0.249388
0.235945
0.222652
0.39185
0.368641
0.346699
0.326023
0.306721
0.288651
0.272081
0.256454
0.242598
0.229099
0.397032
0.374302
0.352727
0.332313
0.313157
0.29514
0.278487
0.26275
0.248564
0.234881
0.401541
0.379237
0.357994
0.337822
0.318811
0.300864
0.284158
0.268346
0.253899
0.240045
0.405466
0.383543
0.362599
0.342654
0.323784
0.305914
0.289178
0.273313
0.25866
0.24465
0.408885
0.387301
0.366627
0.346891
0.328156
0.310367
0.293619
0.277714
0.262897
0.248742
0.411855
0.390574
0.370143
0.350601
0.331995
0.314285
0.297537
0.281601
0.266651
0.252362
0.414403
0.393404
0.373201
0.353839
0.335356
0.317722
0.300982
0.285021
0.269959
0.255544
0.416585
0.395839
0.375846
0.35665
0.338283
0.320722
0.303994
0.28801
0.27285
0.258316
0.418432
0.397916
0.378116
0.359073
0.340814
0.32332
0.306607
0.2906
0.275353
0.260702
0.419974
0.399665
0.380041
0.361139
0.342979
0.325547
0.308847
0.292818
0.277489
0.262724
0.421232
0.40111
0.381645
0.362871
0.344803
0.327427
0.310739
0.294685
0.279278
0.264399
0.422222
0.402268
0.382948
0.36429
0.346305
0.328978
0.3123
0.296218
0.280734
0.265741
0.422959
0.403155
0.383964
0.36541
0.347499
0.330214
0.31354
0.297428
0.281868
0.266759
0.423456
0.403787
0.384714
0.366255
0.34841
0.331161
0.314488
0.298341
0.282702
0.267473
0.423687
0.404143
0.38518
0.36681
0.34903
0.331817
0.315146
0.298968
0.283255
0.267908
0.683366
0.679863
0.672196
0.662139
0.650011
0.635124
0.616456
0.59366
0.569746
0.559288
0.651554
0.645163
0.63416
0.62156
0.606985
0.589163
0.567003
0.540372
0.512647
0.499572
0.617511
0.608538
0.595252
0.580516
0.563488
0.54271
0.517174
0.48701
0.455827
0.440519
0.580817
0.570175
0.555487
0.53905
0.519809
0.496323
0.467732
0.434522
0.400399
0.383336
0.543426
0.531437
0.515626
0.497701
0.476501
0.450641
0.419411
0.383691
0.347463
0.32911
0.506291
0.493109
0.476342
0.45712
0.434221
0.406353
0.37297
0.334907
0.298446
0.27885
0.469851
0.455656
0.438139
0.417859
0.393569
0.364094
0.32894
0.289913
0.253658
0.233211
0.434533
0.419498
0.401477
0.380414
0.355073
0.324429
0.288388
0.249092
0.213516
0.192772
0.400711
0.385022
0.366841
0.345252
0.31918
0.287927
0.251629
0.212782
0.178519
0.157955
0.368209
0.352842
0.334547
0.312664
0.286301
0.254934
0.218983
0.181334
0.148984
0.128967
0.895647
0.896472
0.898492
0.901792
0.906371
0.912138
0.918788
0.925545
0.932454
0.94507
0.891826
0.892257
0.894
0.89699
0.90117
0.906445
0.912501
0.918552
0.924646
0.936748
0.884178
0.883847
0.885048
0.887424
0.890816
0.895115
0.89998
0.904622
0.909213
0.92016
0.872709
0.871294
0.871716
0.873192
0.875429
0.878299
0.88142
0.884001
0.886412
0.895655
0.857438
0.854679
0.85412
0.854438
0.855185
0.856212
0.857086
0.857016
0.856631
0.863699
0.838395
0.8341
0.832409
0.831349
0.830317
0.829143
0.827332
0.824104
0.820396
0.8249
0.815695
0.80974
0.806818
0.8042
0.801145
0.797471
0.792614
0.785817
0.778368
0.780016
0.78922
0.781622
0.77752
0.773268
0.768026
0.761639
0.753475
0.742813
0.731336
0.729942
0.759335
0.75021
0.745048
0.739026
0.731436
0.722193
0.710557
0.695858
0.6802
0.675698
0.724036
0.71567
0.709875
0.701959
0.691965
0.679818
0.66463
0.645832
0.625977
0.618412
0.996233
0.988817
0.981578
0.97443
0.967355
0.960384
0.953555
0.946897
0.940439
0.93421
0.928263
0.92266
0.917437
0.912637
0.908309
0.90451
0.901298
0.898735
0.896885
0.895799
0.996187
0.988685
0.981351
0.974101
0.966922
0.959845
0.952905
0.94613
0.93955
0.93319
0.927118
0.921376
0.915996
0.911019
0.906492
0.902468
0.899
0.896142
0.893951
0.892458
0.996104
0.98842
0.98089
0.973441
0.966061
0.95878
0.951631
0.944637
0.937821
0.93119
0.924849
0.918819
0.913121
0.907789
0.902864
0.89839
0.894408
0.890957
0.888081
0.885762
0.995976
0.988019
0.980194
0.972444
0.964757
0.957157
0.949673
0.942329
0.935145
0.928183
0.921464
0.915001
0.908823
0.902962
0.897445
0.892297
0.887544
0.883199
0.879287
0.875695
0.995805
0.987482
0.97927
0.971127
0.963046
0.955044
0.947144
0.939357
0.931666
0.924225
0.916988
0.909952
0.903141
0.896576
0.890269
0.884224
0.878441
0.872896
0.867589
0.86225
0.995587
0.986805
0.978106
0.969465
0.960873
0.952342
0.943891
0.93552
0.927325
0.919306
0.911418
0.903669
0.896076
0.888641
0.881354
0.874191
0.86712
0.860062
0.853005
0.845419
0.995327
0.986003
0.976743
0.967535
0.958371
0.949259
0.940174
0.931136
0.9223
0.913556
0.904877
0.896275
0.887748
0.879274
0.870816
0.862317
0.853706
0.844826
0.835669
0.825303
0.995009
0.985027
0.975076
0.965172
0.955297
0.945387
0.935559
0.925937
0.91635
0.906764
0.897188
0.887614
0.878013
0.868334
0.858509
0.848437
0.838004
0.826951
0.815332
0.801675
0.994704
0.984096
0.973483
0.962789
0.952095
0.941543
0.93108
0.920603
0.910097
0.899562
0.88898
0.878318
0.867522
0.856516
0.845199
0.833419
0.821015
0.807564
0.793197
0.775478
0.994189
0.982551
0.970922
0.959412
0.947966
0.93652
0.925062
0.913583
0.902057
0.890451
0.87872
0.866801
0.854606
0.842016
0.828875
0.814956
0.800027
0.783519
0.765738
0.743248
0.993963
0.981881
0.969791
0.957689
0.945555
0.933377
0.921144
0.908827
0.896386
0.883773
0.870926
0.857763
0.844175
0.830017
0.815101
0.799159
0.78187
0.762554
0.740688
0.713228
0.99378
0.981332
0.968859
0.956357
0.943813
0.93121
0.91852
0.90571
0.892734
0.87954
0.866061
0.85221
0.837877
0.822919
0.807156
0.790341
0.772199
0.752254
0.7303
0.705496
0.993611
0.980813
0.967974
0.955094
0.942161
0.929149
0.916027
0.902758
0.889296
0.875588
0.861563
0.847139
0.83221
0.816646
0.800289
0.782939
0.764389
0.744345
0.722635
0.698836
0.993444
0.980299
0.967094
0.953838
0.940516
0.927099
0.913552
0.899836
0.885907
0.871708
0.857173
0.842221
0.826756
0.810662
0.793807
0.776032
0.757174
0.737037
0.715442
0.692154
0.99328
0.979795
0.966236
0.952616
0.938922
0.925119
0.911173
0.897043
0.882684
0.868042
0.853053
0.837643
0.821725
0.805199
0.787955
0.769866
0.750803
0.730631
0.709212
0.686416
0.993121
0.979311
0.965413
0.951447
0.9374
0.923238
0.908922
0.894413
0.879666
0.864631
0.849248
0.83345
0.817159
0.800292
0.782756
0.764452
0.74528
0.72515
0.703955
0.681611
0.99297
0.97885
0.964632
0.95034
0.935964
0.921467
0.906811
0.891958
0.876864
0.861483
0.845759
0.829632
0.813037
0.7959
0.778148
0.759703
0.740487
0.72044
0.699477
0.677539
0.992827
0.978416
0.963898
0.949302
0.934621
0.919817
0.904851
0.889687
0.874284
0.858599
0.842582
0.826179
0.809335
0.791988
0.774077
0.755544
0.736327
0.716386
0.695653
0.674089
0.992693
0.978011
0.963215
0.94834
0.933378
0.918294
0.903048
0.887606
0.87193
0.855981
0.839713
0.82308
0.806033
0.788523
0.770499
0.751916
0.732727
0.712906
0.692397
0.671179
0.99257
0.977638
0.962588
0.947456
0.93224
0.916902
0.901406
0.885717
0.869802
0.853624
0.837143
0.820319
0.80311
0.785474
0.767372
0.748767
0.729625
0.709929
0.689637
0.668737
0.992457
0.977298
0.962017
0.946655
0.931209
0.915645
0.899926
0.88402
0.867897
0.851522
0.834862
0.817879
0.80054
0.782809
0.764654
0.746048
0.726965
0.707395
0.687305
0.666694
0.992356
0.976992
0.961504
0.945935
0.930286
0.914521
0.898607
0.882512
0.866209
0.849668
0.832856
0.815744
0.798301
0.780499
0.762311
0.743717
0.724698
0.70525
0.685348
0.664996
0.992265
0.97672
0.96105
0.9453
0.929471
0.913531
0.897447
0.88119
0.864733
0.84805
0.831113
0.813895
0.796371
0.778516
0.76031
0.741737
0.722783
0.703448
0.683716
0.663594
0.992186
0.976483
0.960654
0.944746
0.928763
0.912673
0.896443
0.880047
0.863462
0.846661
0.829621
0.812317
0.794729
0.776836
0.758621
0.740074
0.721183
0.701952
0.68237
0.662448
0.992118
0.976281
0.960317
0.944275
0.928161
0.911944
0.895592
0.879081
0.862388
0.84549
0.828366
0.810995
0.793358
0.775437
0.757221
0.7387
0.719867
0.700727
0.681276
0.661524
0.992062
0.976112
0.960037
0.943885
0.927663
0.911341
0.894889
0.878284
0.861504
0.844529
0.827339
0.809915
0.79224
0.774301
0.756087
0.737591
0.718809
0.699748
0.680406
0.660796
0.992017
0.975978
0.959814
0.943575
0.927268
0.910863
0.894332
0.877653
0.860805
0.84377
0.826529
0.809065
0.791363
0.773411
0.755201
0.736728
0.717989
0.698992
0.679738
0.660242
0.991984
0.975878
0.959648
0.943344
0.926972
0.910506
0.893917
0.877184
0.860286
0.843207
0.825929
0.808436
0.790715
0.772755
0.75455
0.736094
0.717389
0.698441
0.679254
0.659844
0.991961
0.975813
0.959539
0.943191
0.926777
0.91027
0.893642
0.876872
0.859942
0.842834
0.825532
0.808021
0.790288
0.772324
0.754121
0.735679
0.716997
0.698083
0.678942
0.659591
0.991948
0.97578
0.959486
0.943115
0.926679
0.910152
0.893505
0.876718
0.859771
0.842649
0.825335
0.807815
0.790076
0.772109
0.753909
0.735473
0.716803
0.697907
0.678793
0.65948
0.682645
0.650312
0.61765
0.583023
0.547552
0.512286
0.477574
0.443719
0.411029
0.380015
0.67884
0.645344
0.612945
0.580424
0.547173
0.514041
0.481427
0.449559
0.418778
0.389528
0.672973
0.64053
0.609269
0.578743
0.547508
0.516166
0.485265
0.455044
0.425777
0.397749
0.667316
0.636507
0.606508
0.577531
0.547964
0.518145
0.488679
0.459818
0.431778
0.404819
0.662397
0.633105
0.604356
0.57664
0.548457
0.519946
0.491695
0.463978
0.43698
0.410925
0.658185
0.630232
0.602667
0.576011
0.548974
0.521578
0.494362
0.467615
0.441502
0.416219
0.654608
0.62783
0.601332
0.575573
0.549482
0.523035
0.496707
0.470786
0.445432
0.420816
0.651604
0.625841
0.600271
0.575269
0.549964
0.524322
0.498757
0.473546
0.448845
0.424813
0.649099
0.624203
0.599421
0.575054
0.550404
0.525445
0.500535
0.475938
0.451805
0.428281
0.64702
0.622857
0.598731
0.574893
0.55079
0.52641
0.502065
0.478
0.454366
0.431296
0.645301
0.621751
0.598163
0.574761
0.551115
0.527226
0.503366
0.479761
0.456558
0.43392
0.643884
0.62084
0.597688
0.574639
0.551372
0.527899
0.504456
0.48125
0.458418
0.436074
0.64272
0.620085
0.597278
0.574513
0.551559
0.528436
0.505352
0.482494
0.459998
0.437984
0.64177
0.619454
0.596914
0.574371
0.551671
0.528842
0.506066
0.483512
0.461312
0.439578
0.641
0.618922
0.59658
0.574205
0.551708
0.529123
0.506608
0.484318
0.462378
0.440893
0.640383
0.618467
0.596261
0.574007
0.551667
0.529282
0.506987
0.484924
0.463211
0.441948
0.6399
0.618075
0.595949
0.573771
0.551548
0.529321
0.507208
0.485339
0.463824
0.442756
0.639532
0.617734
0.595638
0.573499
0.551354
0.529247
0.507281
0.485574
0.464229
0.44333
0.639262
0.617421
0.595301
0.573164
0.551066
0.529047
0.507199
0.485629
0.464432
0.443687
0.639115
0.617168
0.59495
0.572749
0.550644
0.528671
0.506907
0.485449
0.46438
0.44377
)
;

boundaryField
{
    bottom
    {
        type            symmetryPlane;
    }
    right
    {
        type            fixedValue;
        value           uniform 0;
    }
    top
    {
        type            symmetryPlane;
    }
    left
    {
        type            fixedValue;
        value           uniform 1;
    }
    cylinder
    {
        type            zeroGradient;
    }
    defaultFaces
    {
        type            empty;
    }
}


// ************************************************************************* //
