/*--------------------------------*- C++ -*----------------------------------*\
| =========                 |                                                 |
| \\      /  F ield         | OpenFOAM: The Open Source CFD Toolbox           |
|  \\    /   O peration     | Version:  4.1                                   |
|   \\  /    A nd           | Web:      www.OpenFOAM.org                      |
|    \\/     M anipulation  |                                                 |
\*---------------------------------------------------------------------------*/
FoamFile
{
    version     2.0;
    format      ascii;
    class       volScalarField;
    location    "3.7";
    object      p;
}
// * * * * * * * * * * * * * * * * * * * * * * * * * * * * * * * * * * * * * //

dimensions      [0 2 -2 0 0 0 0];

internalField   nonuniform List<scalar> 
2000
(
-0.0704947
-0.0602402
-0.0523295
-0.0430255
-0.0308533
-0.0157618
0.0014659
0.0196813
0.0381048
0.0539639
-0.0867342
-0.0745636
-0.0647473
-0.0526619
-0.0369397
-0.0181446
0.00236181
0.0231142
0.0429405
0.0599591
-0.103245
-0.0890242
-0.076748
-0.0610063
-0.0408836
-0.0178388
0.00616955
0.0295062
0.0510764
0.0699637
-0.119406
-0.102994
-0.087562
-0.0672315
-0.0419815
-0.0143725
0.0131331
0.0389024
0.0620402
0.0820882
-0.134322
-0.115583
-0.0961827
-0.070369
-0.0394958
-0.00726561
0.023569
0.0515651
0.076123
0.0973392
-0.146837
-0.125646
-0.101422
-0.0693925
-0.0327168
0.0039238
0.0377529
0.0676657
0.0934455
0.115656
-0.155582
-0.131829
-0.102009
-0.0633205
-0.0210082
0.019601
0.0559818
0.087479
0.114295
0.13738
-0.159058
-0.132659
-0.0967147
-0.0513026
-0.00384768
0.0401007
0.0785027
0.111216
0.138865
0.162647
-0.155768
-0.126706
-0.0844102
-0.0326573
0.0191632
0.0656879
0.105518
0.139034
0.167255
0.191472
-0.144352
-0.112706
-0.0641796
-0.00690077
0.0482888
0.0965482
0.137181
0.171037
0.199448
0.223686
0.0369494
0.035541
0.0379446
0.0428169
0.0497259
0.058308
0.0680175
0.0781471
0.0880062
0.0968888
0.0339742
0.0328273
0.0352359
0.0399744
0.0466735
0.0550576
0.0646142
0.0746658
0.0845907
0.0936546
0.0282423
0.0276439
0.0300635
0.0345514
0.0409299
0.0489796
0.0582593
0.0681934
0.0782418
0.0876846
0.0202048
0.0204033
0.0229064
0.0271501
0.0331476
0.0408053
0.0498006
0.0596361
0.0698621
0.0798989
0.0103614
0.0115726
0.0142901
0.0183628
0.024052
0.0314061
0.0402263
0.0500866
0.0605666
0.0713949
-0.000845216
0.00156006
0.0045825
0.00871618
0.0143061
0.0215851
0.0304798
0.0406106
0.0514852
0.0632461
-0.0130759
-0.00932805
-0.00574794
-0.00137976
0.00440695
0.0119735
0.0213229
0.0320699
0.0435719
0.0563398
-0.0261766
-0.0209673
-0.0166512
-0.0117314
-0.0053208
0.00304057
0.0133482
0.0251102
0.0375462
0.0512855
-0.0401122
-0.0333312
-0.0280811
-0.0222251
-0.0146263
-0.00480081
0.0071201
0.0204134
0.0342131
0.0485013
-0.0548944
-0.0464358
-0.0400114
-0.0327362
-0.0232507
-0.0111762
0.00311317
0.018669
0.034624
0.0488811
0.104095
0.110464
0.115666
0.119348
0.121385
0.12177
0.120533
0.117742
0.113497
0.107923
0.10116
0.0933514
0.0846382
0.0751513
0.0650073
0.0543142
0.0431347
0.0316173
0.019507
0.0077867
0.100481
0.107113
0.112784
0.116844
0.119185
0.119845
0.118866
0.116307
0.112267
0.106873
0.100267
0.0925964
0.0840024
0.074619
0.064565
0.0539514
0.0428416
0.0313914
0.0193409
0.0076944
0.093795
0.100889
0.107424
0.112182
0.115083
0.116257
0.115758
0.113632
0.109975
0.104917
0.0986058
0.0911919
0.0828212
0.0736315
0.0637458
0.0532801
0.0423019
0.0309699
0.0190477
0.00746552
0.0850769
0.0926967
0.100338
0.106002
0.10963
0.111473
0.111607
0.110055
0.106904
0.102293
0.0963741
0.0893038
0.0812326
0.0723034
0.0626446
0.0523778
0.0415773
0.0304028
0.0186553
0.00715625
0.0756167
0.0836934
0.0924772
0.0991023
0.103509
0.106082
0.106916
0.106003
0.10342
0.099311
0.0938372
0.0871579
0.0794285
0.070797
0.0613974
0.0513575
0.0407597
0.0297624
0.0182166
0.00680872
0.0667134
0.075128
0.0848628
0.0923289
0.0974441
0.100707
0.102214
0.101927
0.0999047
0.0962974
0.0912718
0.0849902
0.0776102
0.0692837
0.0601494
0.0503399
0.0399477
0.0291257
0.0177853
0.00646215
0.0594641
0.068153
0.0784781
0.0865005
0.0921352
0.0959451
0.0980112
0.0982633
0.0967351
0.0935738
0.0889505
0.0830296
0.0759698
0.0679244
0.0590346
0.0494355
0.0392301
0.0285614
0.0174075
0.0061495
0.0545399
0.0634955
0.0739697
0.0821476
0.0880158
0.0921383
0.0945738
0.095247
0.0941421
0.0913719
0.087098
0.0814852
0.0746943
0.0668805
0.0581885
0.0487545
0.0386925
0.0281317
0.0171182
0.00588927
0.0517264
0.0607852
0.0710076
0.0790578
0.0850036
0.0892792
0.0919332
0.0929
0.0921572
0.0897602
0.0858289
0.0805126
0.0739682
0.0663513
0.0578115
0.048488
0.0385078
0.0279852
0.0170243
0.00573318
0.0522645
0.061244
0.07097
0.0788644
0.0846936
0.0887669
0.0912204
0.0920498
0.0912855
0.088964
0.0851646
0.0800043
0.0736162
0.0661392
0.0577153
0.0484771
0.0385598
0.02806
0.0171223
0.00572226
0.0664246
0.0697091
0.0776485
0.0845695
0.0891699
0.0919756
0.0933911
0.0934366
0.0920469
0.0892292
0.0850599
0.079644
0.0730971
0.0655385
0.0570965
0.0478856
0.0380442
0.0276361
0.0168586
0.00557522
0.0809067
0.0807044
0.0863478
0.0915664
0.094443
0.0955787
0.0955616
0.0944473
0.0921372
0.0886149
0.0839417
0.0782023
0.0714868
0.063887
0.0555078
0.0464384
0.0368067
0.0266449
0.0161885
0.00522528
0.0945399
0.0919988
0.0952
0.0984218
0.0996193
0.0992693
0.0979732
0.0958105
0.0926684
0.0885037
0.0833565
0.077293
0.0703847
0.0627029
0.0543357
0.0453526
0.0358754
0.0259094
0.0157224
0.00501298
0.107681
0.103166
0.104044
0.105269
0.104872
0.103175
0.100711
0.097563
0.0936228
0.0888318
0.0832112
0.0768103
0.0696844
0.0618876
0.0534933
0.0445531
0.0351826
0.0253619
0.0153784
0.00485394
0.119958
0.113838
0.112623
0.111974
0.110087
0.107156
0.103621
0.0995558
0.09486
0.089468
0.0833849
0.0766436
0.0692854
0.0613497
0.0528974
0.0439643
0.0346599
0.0249411
0.0151092
0.00472801
0.131186
0.123823
0.120773
0.11842
0.115171
0.111121
0.106614
0.101707
0.0963083
0.0903484
0.0838201
0.0767422
0.0691438
0.0610522
0.0525174
0.0435615
0.0342879
0.024634
0.0149106
0.00463539
0.141353
0.133019
0.128392
0.124531
0.12006
0.115005
0.109623
0.103951
0.097903
0.0914116
0.0844593
0.0770535
0.0692128
0.0609541
0.0523185
0.0433161
0.0340444
0.0244242
0.0147723
0.00456999
0.150475
0.141382
0.135426
0.130252
0.124703
0.118754
0.112587
0.106224
0.0995833
0.0925991
0.0852478
0.0775269
0.0694468
0.0610155
0.0522663
0.0431992
0.0339064
0.0242945
0.0146833
0.00452624
0.158602
0.148916
0.141851
0.135552
0.12906
0.12232
0.115457
0.108474
0.101296
0.0938594
0.0861364
0.0781171
0.0698046
0.0611997
0.0523293
0.0431847
0.0338531
0.0242292
0.0146341
0.00449987
0.165806
0.155654
0.147666
0.140408
0.1331
0.125669
0.118191
0.110656
0.102994
0.0951469
0.0870817
0.0787832
0.070249
0.0614738
0.0524789
0.0432487
0.0338655
0.0242145
0.0146163
0.00448715
0.172155
0.161631
0.152879
0.14481
0.136802
0.128769
0.120753
0.112731
0.10464
0.0964222
0.0880453
0.0794893
0.0707468
0.061808
0.0526896
0.0433696
0.0339266
0.0242378
0.0146222
0.00448483
0.177711
0.166888
0.157503
0.148753
0.140149
0.131599
0.123115
0.114668
0.106198
0.0976512
0.0889942
0.0802038
0.0712692
0.0621764
0.0529385
0.0435286
0.0340216
0.0242881
0.0146453
0.00449008
0.182526
0.171463
0.161557
0.152239
0.143132
0.134142
0.125256
0.116441
0.107641
0.0988054
0.0899001
0.0808997
0.0717908
0.0625562
0.0532059
0.0437089
0.034137
0.0243557
0.0146797
0.00450044
0.186647
0.175392
0.16506
0.155272
0.145746
0.136384
0.127159
0.11803
0.108946
0.0998608
0.0907392
0.0815541
0.0722902
0.0629279
0.0534747
0.0438962
0.0342615
0.0244322
0.0147202
0.00451382
0.190114
0.178706
0.168028
0.157858
0.147986
0.138318
0.128809
0.119417
0.110095
0.100798
0.0914917
0.0821478
0.0727494
0.0632751
0.0537304
0.0440782
0.0343854
0.0245105
0.0147626
0.00452845
0.19296
0.181431
0.170478
0.160002
0.149853
0.139936
0.130197
0.120591
0.111073
0.101601
0.0921414
0.082665
0.0731535
0.0635842
0.0539609
0.0442447
0.0345005
0.0245844
0.0148032
0.00454285
0.195212
0.18359
0.172424
0.16171
0.151346
0.141236
0.131316
0.12154
0.111868
0.102257
0.0926757
0.083093
0.0734905
0.0638441
0.0541565
0.0443875
0.0346002
0.0246493
0.0148391
0.00455582
0.196889
0.185198
0.173875
0.162988
0.152465
0.142212
0.132159
0.122258
0.112471
0.102758
0.0930846
0.0834223
0.073751
0.0640462
0.0543097
0.0445001
0.0346794
0.0247014
0.0148681
0.00456658
0.198018
0.186273
0.174842
0.163838
0.153211
0.142864
0.132723
0.12274
0.112877
0.103095
0.0933612
0.0836457
0.0739284
0.0641845
0.0544149
0.0445779
0.0347342
0.024738
0.014888
0.00457643
0.198619
0.186833
0.175337
0.164269
0.153587
0.143192
0.133007
0.122982
0.113081
0.103264
0.0935005
0.0837585
0.0740181
0.0642547
0.0544681
0.044618
0.0347609
0.0247591
0.0148934
0.00459289
0.243696
0.212226
0.183869
0.158811
0.137106
0.118679
0.103377
0.0910172
0.0814554
0.071599
0.260638
0.230459
0.20321
0.178912
0.157657
0.139261
0.123882
0.110543
0.100219
0.0881877
0.275455
0.246643
0.220501
0.196919
0.176043
0.157484
0.141687
0.127169
0.11589
0.1034
0.288356
0.260683
0.235408
0.212367
0.191769
0.173089
0.157017
0.142003
0.130245
0.117834
0.299571
0.272844
0.248289
0.225724
0.205414
0.186806
0.170686
0.155617
0.143416
0.13099
0.309351
0.283448
0.259534
0.237434
0.21743
0.199004
0.182868
0.167792
0.155121
0.142659
0.317905
0.292732
0.269393
0.247733
0.228013
0.209783
0.193611
0.178537
0.165521
0.153039
0.325394
0.30087
0.278041
0.256784
0.237319
0.219281
0.203097
0.188057
0.174815
0.162283
0.331948
0.307999
0.285625
0.264736
0.245506
0.227657
0.211492
0.196493
0.183089
0.170482
0.337675
0.314237
0.29227
0.271715
0.252706
0.235035
0.218908
0.20394
0.190417
0.177731
0.342662
0.319679
0.298079
0.277826
0.259021
0.241512
0.225432
0.210491
0.196877
0.184117
0.346983
0.324405
0.303134
0.283153
0.264537
0.247173
0.231144
0.216225
0.202539
0.189705
0.350697
0.32848
0.307504
0.287767
0.269324
0.252089
0.236111
0.22121
0.207461
0.194553
0.353856
0.331958
0.311245
0.291725
0.273439
0.256319
0.240389
0.225499
0.211693
0.198709
0.3565
0.334886
0.314404
0.295077
0.276932
0.259912
0.244023
0.229138
0.215277
0.202214
0.358661
0.337296
0.317019
0.297861
0.279841
0.262907
0.247053
0.232165
0.218248
0.205102
0.360358
0.33921
0.319115
0.300107
0.282195
0.265333
0.249506
0.234609
0.220634
0.207399
0.361611
0.340653
0.320719
0.301839
0.284019
0.267216
0.251406
0.236492
0.222455
0.209127
0.362443
0.341649
0.321857
0.303089
0.285349
0.268593
0.252792
0.237853
0.223748
0.210317
0.362818
0.342162
0.322487
0.303816
0.286145
0.269429
0.253637
0.238679
0.224517
0.210992
0.6689
0.66634
0.657732
0.644794
0.628024
0.606372
0.577668
0.539959
0.495791
0.471868
0.626781
0.619747
0.605437
0.587943
0.566934
0.540309
0.505605
0.461129
0.409788
0.381253
0.582101
0.570638
0.55213
0.530815
0.505613
0.473972
0.433462
0.382803
0.325032
0.292715
0.53338
0.518866
0.49774
0.473461
0.444511
0.40825
0.362465
0.30653
0.243408
0.208496
0.483732
0.46672
0.443523
0.416696
0.384445
0.34414
0.293763
0.233451
0.166964
0.13066
0.434936
0.415668
0.390673
0.361604
0.326486
0.282776
0.228658
0.164325
0.0984117
0.0606177
0.387694
0.366464
0.340001
0.309098
0.271625
0.22522
0.168311
0.102404
0.0376877
-0.000554968
0.342599
0.319716
0.292156
0.259924
0.220679
0.172425
0.114141
0.0481742
-0.0143804
-0.0519493
0.300097
0.275915
0.247828
0.214591
0.174218
0.125093
0.0666472
0.00208031
-0.0569446
-0.0930201
0.259542
0.235609
0.207333
0.173575
0.132755
0.083629
0.0262104
-0.0354251
-0.0896602
-0.123695
0.955996
0.962548
0.970912
0.981153
0.993243
1.007
1.02187
1.03639
1.04959
1.0682
0.951013
0.956898
0.964767
0.974471
0.985883
0.9988
1.01266
1.02594
1.03768
1.05527
0.941015
0.945603
0.952501
0.961145
0.971217
0.982474
0.994292
1.00511
1.01411
1.02952
0.925955
0.928692
0.934189
0.94128
0.949388
0.958213
0.967045
0.974246
0.979263
0.991465
0.905784
0.906219
0.909951
0.915044
0.920618
0.926305
0.931285
0.933829
0.933713
0.941831
0.880466
0.878234
0.879926
0.882649
0.885198
0.887137
0.887514
0.884499
0.878258
0.881577
0.850099
0.844967
0.844448
0.844497
0.843595
0.841262
0.836402
0.827089
0.813919
0.811918
0.814347
0.806294
0.803666
0.800936
0.796308
0.789333
0.778778
0.762626
0.741942
0.734322
0.773787
0.762993
0.758467
0.752701
0.744028
0.732149
0.715614
0.692308
0.663778
0.650485
0.725187
0.715318
0.709756
0.700696
0.687777
0.670862
0.648176
0.61758
0.581111
0.562321
0.997171
0.991621
0.98635
0.981251
0.976261
0.971413
0.966764
0.962365
0.958258
0.954492
0.951122
0.94824
0.945909
0.94419
0.943151
0.942872
0.943433
0.944919
0.947432
0.951051
0.997119
0.99148
0.986106
0.980891
0.975781
0.970812
0.966037
0.961504
0.957253
0.953329
0.949798
0.946736
0.944203
0.942253
0.940955
0.94038
0.940606
0.941705
0.943765
0.946818
0.997031
0.991198
0.985603
0.980156
0.974813
0.969602
0.964575
0.95977
0.955229
0.95099
0.947141
0.943726
0.940788
0.938381
0.936562
0.935393
0.934939
0.935255
0.9364
0.938307
0.996894
0.990765
0.984839
0.97905
0.97336
0.967794
0.962395
0.957202
0.952242
0.947519
0.943176
0.939225
0.935683
0.932589
0.929988
0.927921
0.926427
0.925525
0.925266
0.925414
0.996706
0.990177
0.983811
0.977568
0.971415
0.965369
0.959458
0.953708
0.948147
0.942897
0.937935
0.933263
0.928908
0.9249
0.921258
0.917987
0.915095
0.912532
0.910331
0.908036
0.996466
0.989432
0.982518
0.97571
0.968981
0.96234
0.955816
0.949436
0.943151
0.937175
0.931417
0.925848
0.920487
0.915341
0.9104
0.905624
0.900978
0.896316
0.891666
0.886183
0.996172
0.988529
0.980971
0.973504
0.966107
0.95878
0.951513
0.944194
0.93724
0.930429
0.923694
0.917042
0.910478
0.903971
0.89747
0.89088
0.884121
0.876905
0.869297
0.85986
0.995819
0.98745
0.979116
0.970851
0.962633
0.954399
0.946185
0.9383
0.930452
0.922584
0.914709
0.906815
0.898862
0.890772
0.882448
0.873712
0.864431
0.854106
0.842923
0.828632
0.995457
0.98635
0.977235
0.968052
0.958872
0.949824
0.940922
0.932003
0.923024
0.913976
0.904836
0.895551
0.886042
0.876184
0.865838
0.854732
0.842708
0.828947
0.813874
0.793733
0.994899
0.984683
0.974471
0.964381
0.954358
0.944329
0.934271
0.924159
0.91395
0.903593
0.893023
0.882145
0.87083
0.858886
0.846095
0.83203
0.816463
0.79812
0.777989
0.750151
0.994601
0.983794
0.972972
0.962132
0.951243
0.940281
0.929223
0.918029
0.906638
0.894972
0.882938
0.870409
0.857223
0.843141
0.827891
0.810987
0.792026
0.769651
0.743346
0.707743
0.994334
0.982989
0.9716
0.960153
0.948636
0.937021
0.925267
0.913321
0.901115
0.888563
0.875564
0.861981
0.847647
0.832325
0.815749
0.797469
0.777122
0.753767
0.727253
0.696185
0.994078
0.982213
0.970272
0.958253
0.946144
0.93391
0.921499
0.908854
0.895903
0.882561
0.868722
0.854254
0.838994
0.822728
0.80522
0.786112
0.765125
0.74171
0.715689
0.686374
0.993826
0.981445
0.968959
0.956372
0.943676
0.930831
0.91778
0.90446
0.890801
0.876716
0.862101
0.846831
0.830756
0.813687
0.795424
0.775692
0.754268
0.730791
0.705046
0.676557
0.993579
0.980692
0.967674
0.954535
0.941272
0.927843
0.914186
0.900237
0.885926
0.871167
0.855863
0.839897
0.823133
0.805412
0.786564
0.766376
0.744669
0.721184
0.695767
0.668077
0.993338
0.979964
0.966434
0.952766
0.938966
0.924987
0.910767
0.896241
0.881338
0.86598
0.850075
0.833516
0.816186
0.797948
0.778663
0.758164
0.736313
0.712924
0.687904
0.660973
0.993108
0.979268
0.965252
0.951085
0.936779
0.922288
0.907549
0.892495
0.877062
0.861173
0.844747
0.827688
0.809894
0.79125
0.771644
0.750944
0.729047
0.705821
0.681203
0.654953
0.992889
0.978609
0.964136
0.949502
0.934726
0.919763
0.904548
0.889018
0.873111
0.856757
0.839882
0.822402
0.80423
0.785271
0.765431
0.744611
0.722734
0.699701
0.675472
0.649845
0.992685
0.977993
0.963095
0.948029
0.932819
0.917424
0.901778
0.885822
0.869495
0.852736
0.835477
0.817646
0.799168
0.779964
0.759961
0.739079
0.717263
0.694441
0.670585
0.645534
0.992495
0.977422
0.962134
0.946672
0.931067
0.915281
0.899248
0.882912
0.866217
0.849107
0.831523
0.8134
0.794676
0.775286
0.755171
0.73427
0.712542
0.689938
0.666437
0.641914
0.99232
0.9769
0.961257
0.945437
0.929476
0.913338
0.896962
0.880291
0.863275
0.845864
0.828004
0.809642
0.790722
0.771192
0.751004
0.730114
0.708491
0.686101
0.662933
0.638892
0.992163
0.976428
0.960467
0.944326
0.928048
0.911599
0.89492
0.877957
0.860665
0.842996
0.824906
0.806346
0.787271
0.767638
0.747408
0.726549
0.705037
0.682854
0.659992
0.636383
0.992022
0.976008
0.959765
0.943342
0.926785
0.910064
0.893121
0.875907
0.858377
0.840492
0.82221
0.803491
0.784294
0.764585
0.744335
0.723517
0.702118
0.680128
0.657543
0.634317
0.991899
0.975641
0.959152
0.942484
0.925685
0.90873
0.891562
0.874133
0.856404
0.838338
0.819899
0.80105
0.78176
0.761998
0.741741
0.720971
0.69968
0.677865
0.655525
0.632634
0.991794
0.975326
0.958628
0.941752
0.924749
0.907596
0.890238
0.87263
0.854735
0.836521
0.817954
0.799004
0.779641
0.759842
0.739588
0.718868
0.697676
0.676016
0.653888
0.631283
0.991706
0.975064
0.958194
0.941145
0.923974
0.906657
0.889144
0.87139
0.853362
0.835029
0.816361
0.797331
0.777914
0.75809
0.737845
0.717172
0.696066
0.674538
0.652589
0.630223
0.991636
0.974855
0.957847
0.940662
0.923357
0.905912
0.888276
0.870407
0.852275
0.833849
0.815104
0.796014
0.776558
0.756719
0.736484
0.715851
0.694818
0.673398
0.651594
0.62942
0.991584
0.9747
0.95759
0.940303
0.922897
0.905356
0.887629
0.869676
0.851466
0.832974
0.814172
0.79504
0.775556
0.755707
0.735483
0.714883
0.693906
0.67257
0.650876
0.628846
0.99155
0.974601
0.957424
0.940067
0.922593
0.904987
0.8872
0.869191
0.850931
0.832394
0.813556
0.794396
0.774895
0.755041
0.734825
0.714248
0.693311
0.672032
0.650416
0.628486
0.991523
0.97455
0.957346
0.939953
0.922442
0.904803
0.886986
0.86895
0.850665
0.832106
0.81325
0.794076
0.774567
0.754711
0.734499
0.713934
0.693017
0.671769
0.650197
0.628334
0.666845
0.624063
0.581555
0.536249
0.489764
0.44405
0.399647
0.356839
0.315963
0.278233
0.661891
0.617636
0.575145
0.532999
0.489931
0.447418
0.406171
0.366401
0.328622
0.293514
0.653777
0.611292
0.570187
0.531032
0.4912
0.451455
0.412803
0.375563
0.340088
0.306753
0.645731
0.605895
0.56657
0.529684
0.492528
0.455188
0.418728
0.383571
0.349966
0.318242
0.638651
0.601257
0.563849
0.528832
0.493882
0.458636
0.424049
0.39064
0.35863
0.328268
0.632555
0.597286
0.561787
0.528386
0.495242
0.461791
0.428818
0.39689
0.36623
0.337031
0.627356
0.593938
0.560218
0.528235
0.496575
0.464646
0.433068
0.402406
0.372897
0.344702
0.622977
0.591162
0.559028
0.528284
0.497856
0.46721
0.436837
0.407264
0.378742
0.351421
0.619324
0.588889
0.558129
0.528457
0.499059
0.469496
0.440159
0.411528
0.38386
0.3573
0.616297
0.58704
0.557451
0.528696
0.500166
0.471515
0.443068
0.415254
0.388326
0.362432
0.613802
0.585546
0.55694
0.52896
0.501159
0.473279
0.445594
0.418487
0.392204
0.366894
0.611757
0.584341
0.556551
0.529217
0.502026
0.474795
0.447763
0.421268
0.395548
0.370751
0.610091
0.583369
0.556245
0.529442
0.502758
0.476073
0.449597
0.423631
0.3984
0.374054
0.608745
0.582581
0.555992
0.529616
0.503348
0.477118
0.451113
0.425601
0.400797
0.376852
0.607666
0.581938
0.555765
0.529725
0.503792
0.477937
0.452328
0.427203
0.402761
0.379141
0.606815
0.581406
0.555542
0.529755
0.504085
0.478534
0.453253
0.428456
0.404329
0.381017
0.606159
0.580962
0.555308
0.5297
0.504224
0.478912
0.453898
0.429377
0.405522
0.382475
0.605669
0.580582
0.555051
0.529553
0.504212
0.479079
0.454276
0.429979
0.406351
0.383521
0.605326
0.580239
0.554734
0.529274
0.504013
0.479008
0.454369
0.430255
0.406821
0.384187
0.605167
0.579999
0.554408
0.528884
0.503619
0.478671
0.454136
0.430155
0.406867
0.384387
)
;

boundaryField
{
    bottom
    {
        type            symmetryPlane;
    }
    right
    {
        type            fixedValue;
        value           uniform 0;
    }
    top
    {
        type            symmetryPlane;
    }
    left
    {
        type            fixedValue;
        value           uniform 1;
    }
    cylinder
    {
        type            zeroGradient;
    }
    defaultFaces
    {
        type            empty;
    }
}


// ************************************************************************* //
