/*--------------------------------*- C++ -*----------------------------------*\
| =========                 |                                                 |
| \\      /  F ield         | OpenFOAM: The Open Source CFD Toolbox           |
|  \\    /   O peration     | Version:  4.1                                   |
|   \\  /    A nd           | Web:      www.OpenFOAM.org                      |
|    \\/     M anipulation  |                                                 |
\*---------------------------------------------------------------------------*/
FoamFile
{
    version     2.0;
    format      ascii;
    class       volVectorField;
    location    "3.7";
    object      U;
}
// * * * * * * * * * * * * * * * * * * * * * * * * * * * * * * * * * * * * * //

dimensions      [0 1 -1 0 0 0 0];

internalField   nonuniform List<vector> 
2000
(
(0.0113373 -0.0039319 9.25861e-21)
(0.107134 -0.0502976 0)
(0.255091 -0.10041 1.08605e-20)
(0.422468 -0.147336 3.5313e-21)
(0.584729 -0.185342 -6.30809e-21)
(0.725189 -0.21228 -2.62486e-21)
(0.83592 -0.228697 1.28964e-21)
(0.916024 -0.23657 0)
(0.970187 -0.236332 2.85692e-21)
(0.996012 -0.239811 0)
(0.026466 -0.0129438 -4.50405e-21)
(0.157134 -0.0680868 3.23809e-21)
(0.338903 -0.117245 -1.43298e-20)
(0.530332 -0.157481 -1.55505e-20)
(0.702676 -0.18604 -4.46142e-22)
(0.840459 -0.203161 5.81257e-22)
(0.939943 -0.210966 -4.44304e-22)
(1.00493 -0.211966 1.95679e-21)
(1.04286 -0.207614 -2.85692e-21)
(1.05675 -0.207826 -9.5243e-21)
(0.046419 -0.0215999 5.66733e-21)
(0.217903 -0.0825575 -5.30845e-21)
(0.433757 -0.126813 7.22951e-21)
(0.643699 -0.157279 -6.93014e-22)
(0.817666 -0.175132 3.46146e-21)
(0.94483 -0.182923 1.50258e-21)
(1.02764 -0.183813 -3.35649e-22)
(1.07487 -0.180463 -1.9568e-21)
(1.09669 -0.17465 -3.98752e-21)
(1.09996 -0.172703 5.10013e-21)
(0.0715854 -0.029104 -4.75858e-22)
(0.288723 -0.0915128 -6.14025e-21)
(0.536121 -0.126705 0)
(0.756666 -0.145364 4.76368e-21)
(0.923525 -0.152774 -4.87097e-21)
(1.0338 -0.153003 0)
(1.09709 -0.149345 0)
(1.12663 -0.143898 0)
(1.13441 -0.137889 3.98762e-21)
(1.12806 -0.135499 -1.15346e-20)
(0.102051 -0.0344933 1.56443e-20)
(0.367757 -0.0927829 -2.4711e-22)
(0.641224 -0.115267 5.04801e-21)
(0.863296 -0.121591 3.22106e-21)
(1.01555 -0.120225 1.60594e-21)
(1.10515 -0.115481 6.97738e-23)
(1.14858 -0.109879 0)
(1.16225 -0.104521 -2.21704e-21)
(1.15874 -0.100031 1.52061e-20)
(1.14594 -0.0983001 -2.12034e-20)
(0.137485 -0.0366938 -2.49567e-20)
(0.452047 -0.0845284 8.70802e-22)
(0.743767 -0.0918527 -9.42209e-21)
(0.958589 -0.0868886 7.39599e-21)
(1.09095 -0.079371 -2.90478e-21)
(1.15867 -0.0724889 1.14962e-21)
(1.18381 -0.0672807 0)
(1.18443 -0.0636755 2.21712e-21)
(1.17266 -0.0615478 -2.98905e-21)
(1.15539 -0.0611895 -1.76182e-20)
(0.177063 -0.034625 0)
(0.537758 -0.0655586 0)
(0.838712 -0.0568682 -4.2362e-21)
(1.03901 -0.0429306 3.94379e-21)
(1.14872 -0.0323188 -4.13447e-23)
(1.19543 -0.0259666 3.8817e-23)
(1.20498 -0.0230662 -5.6326e-21)
(1.19565 -0.0224277 5.32409e-21)
(1.1783 -0.0232839 8.86598e-21)
(1.15844 -0.0248128 -4.18783e-21)
(0.21944 -0.0273376 4.63463e-21)
(0.620603 -0.0355667 0)
(0.921888 -0.0116171 -1.48265e-21)
(1.10257 0.00821557 4.85928e-21)
(1.18913 0.0188931 -1.06885e-21)
(1.21711 0.0224784 0)
(1.21426 0.0216825 0)
(1.19788 0.018607 0)
(1.17713 0.0145191 1.06233e-20)
(1.15596 0.01075 -1.00975e-20)
(0.262813 -0.0141594 -2.55219e-21)
(0.696392 0.00479111 -2.99934e-22)
(0.990244 0.0419514 -2.31356e-21)
(1.14851 0.0643689 2.3521e-22)
(1.21318 0.072413 3.92472e-22)
(1.2255 0.0715144 -8.80524e-22)
(1.21345 0.066104 0)
(1.19256 0.0589013 1.44165e-21)
(1.17009 0.0514765 7.93676e-21)
(1.14857 0.0451592 -6.00721e-21)
(0.305062 0.00516317 0)
(0.761538 0.0540334 -1.65062e-21)
(1.04188 0.101532 0)
(1.17698 0.123386 -3.5631e-22)
(1.22222 0.126597 -3.1408e-22)
(1.22224 0.120022 7.53352e-22)
(1.2039 0.109472 0)
(1.18059 0.0979711 -1.44172e-21)
(1.15775 0.0872094 -1.6163e-21)
(1.13673 0.078153 -1.95748e-21)
(-0.00589096 0.00463731 0)
(-0.0184609 0.00607622 4.74992e-22)
(-0.0298796 0.00381255 0)
(-0.0333686 -0.000146778 7.71609e-22)
(-0.0281466 -0.00489743 2.80378e-22)
(-0.0148335 -0.00995063 -6.61898e-22)
(0.00579199 -0.0149348 6.23325e-22)
(0.0325793 -0.0196423 -7.12973e-22)
(0.0641569 -0.0237322 5.40264e-23)
(0.0989252 -0.0266334 -7.76302e-22)
(-0.00680259 0.0133858 1.40779e-21)
(-0.0183558 0.0173646 -9.3216e-22)
(-0.0269387 0.0105819 8.34263e-22)
(-0.0268629 -0.00115787 -4.92393e-22)
(-0.0177439 -0.0152451 -2.64116e-21)
(-0.000384193 -0.0301484 1.06143e-21)
(0.0241717 -0.0448566 0)
(0.054588 -0.0586717 7.10588e-22)
(0.0895385 -0.0706509 7.60782e-22)
(0.127512 -0.0791275 0)
(-0.00842933 0.0206124 -9.15941e-22)
(-0.0178894 0.0261653 0)
(-0.0208624 0.014832 -2.4838e-21)
(-0.0138009 -0.00439616 3.3296e-21)
(0.00297292 -0.0272701 -7.03067e-22)
(0.0282459 -0.0513074 0)
(0.0604785 -0.0749292 0)
(0.0979803 -0.096924 0)
(0.139312 -0.11591 -5.84795e-21)
(0.183367 -0.129249 5.55813e-21)
(-0.010384 0.025565 0)
(-0.0165577 0.0311738 1.19356e-21)
(-0.0113407 0.0151573 -2.38335e-21)
(0.00600135 -0.0111182 1.18949e-21)
(0.0340147 -0.0419514 -1.64325e-21)
(0.0707408 -0.0740348 5.32352e-21)
(0.114002 -0.105188 7.40986e-22)
(0.161522 -0.133806 -4.06724e-21)
(0.211482 -0.158272 -5.27753e-21)
(0.263793 -0.175153 7.55193e-21)
(-0.0121711 0.0278558 -9.75236e-22)
(-0.0135832 0.0315495 9.66655e-22)
(0.00234244 0.0106084 -3.50763e-22)
(0.0330395 -0.0221783 1.31348e-22)
(0.0755748 -0.0599666 -1.61043e-21)
(0.126902 -0.0986336 3.41973e-21)
(0.183901 -0.135446 0)
(0.243491 -0.168522 1.6868e-21)
(0.303145 -0.196285 -1.9754e-21)
(0.364649 -0.21466 9.57707e-21)
(-0.0132521 0.0274269 -2.60219e-22)
(-0.00794805 0.0269679 -3.80912e-22)
(0.0213074 0.000691826 -4.82203e-22)
(0.0683391 -0.0380138 2.95113e-22)
(0.128384 -0.0814661 -8.53254e-22)
(0.196839 -0.124857 -1.10666e-21)
(0.26928 -0.164997 0)
(0.341657 -0.199847 -1.68672e-21)
(0.410486 -0.228228 -6.10756e-21)
(0.480217 -0.245436 1.41978e-21)
(-0.0130829 0.0245006 1.08672e-22)
(0.00153637 0.0176147 6.19476e-22)
(0.0470862 -0.0144021 0)
(0.113496 -0.0582661 1.1135e-21)
(0.193619 -0.10577 -1.31601e-22)
(0.28079 -0.151592 0)
(0.368911 -0.192313 0)
(0.452932 -0.225973 0)
(0.528602 -0.252126 2.85983e-21)
(0.603147 -0.26536 8.16961e-21)
(-0.011118 0.0194642 -1.3904e-21)
(0.0162968 0.00411238 1.30241e-21)
(0.0815516 -0.0338063 2.28578e-21)
(0.170355 -0.0817366 9.91661e-22)
(0.272423 -0.131202 8.87356e-22)
(0.378429 -0.176709 7.35142e-23)
(0.480463 -0.215013 -8.05386e-22)
(0.572762 -0.244649 -1.69305e-21)
(0.651279 -0.265982 -2.8597e-21)
(0.724828 -0.273144 3.61002e-21)
(-0.00680389 0.0127496 -7.76005e-21)
(0.0378435 -0.0125788 -1.36311e-21)
(0.12671 -0.0560535 -5.19773e-21)
(0.24058 -0.106342 -1.83321e-21)
(0.365116 -0.155111 7.97589e-22)
(0.487925 -0.19723 6.85385e-22)
(0.599661 -0.230206 3.16347e-22)
(0.694685 -0.253586 1.69298e-21)
(0.770933 -0.268073 -2.42666e-21)
(0.836269 -0.269046 6.73134e-21)
(0.000464346 0.00480252 5.59459e-21)
(0.067677 -0.0312093 0)
(0.184248 -0.0790885 3.47931e-21)
(0.324909 -0.12927 -5.41691e-23)
(0.470373 -0.174227 8.10599e-22)
(0.605411 -0.209935 1.86723e-23)
(0.720377 -0.235249 -2.43578e-22)
(0.811158 -0.251032 0)
(0.879244 -0.257604 2.4266e-21)
(0.928582 -0.256143 0)
(0.13341 -0.0273893 0)
(0.168144 -0.0277762 9.32421e-22)
(0.203261 -0.0279871 -1.91072e-21)
(0.238819 -0.0279208 8.55597e-22)
(0.274443 -0.0275492 0)
(0.309705 -0.0269085 -1.01882e-21)
(0.344247 -0.0260448 1.02387e-21)
(0.37778 -0.0249997 0)
(0.410064 -0.0238122 0)
(0.440907 -0.0225206 -1.15167e-22)
(0.470166 -0.0211612 0)
(0.497742 -0.0197671 0)
(0.523582 -0.0183676 0)
(0.547672 -0.0169881 0)
(0.570017 -0.0156499 1.31245e-22)
(0.590708 -0.0143704 -1.31925e-22)
(0.609637 -0.0131664 0)
(0.627561 -0.0120346 2.85542e-23)
(0.642216 -0.0110522 -2.87045e-23)
(0.662229 -0.00992381 0)
(0.162802 -0.081159 0)
(0.196492 -0.0822704 -2.14006e-22)
(0.230123 -0.0828645 0)
(0.264218 -0.0826184 -3.7987e-21)
(0.298322 -0.0814709 3.69486e-21)
(0.33197 -0.0795384 -2.47391e-22)
(0.364842 -0.0769562 1.98048e-21)
(0.396696 -0.0738442 -4.16658e-21)
(0.427323 -0.0703166 3.56921e-21)
(0.456554 -0.0664862 -1.98266e-21)
(0.484264 -0.0624597 -1.65455e-21)
(0.510371 -0.0583345 2.98644e-21)
(0.534831 -0.0541965 -1.52931e-21)
(0.557637 -0.0501198 -7.66741e-22)
(0.578798 -0.0461678 6.08379e-22)
(0.598408 -0.0423898 -1.17746e-22)
(0.616351 -0.0388385 -9.39411e-23)
(0.633387 -0.0354925 -1.12466e-22)
(0.647254 -0.0326116 1.13011e-22)
(0.666348 -0.0292416 -1.67582e-23)
(0.219626 -0.131942 1.83522e-22)
(0.251208 -0.133625 2.14372e-22)
(0.281913 -0.134487 2.14939e-22)
(0.313102 -0.133931 0)
(0.344198 -0.131915 4.33868e-21)
(0.374673 -0.128661 -3.38964e-21)
(0.404284 -0.124386 0)
(0.432872 -0.119276 4.78648e-22)
(0.460288 -0.113512 2.35434e-22)
(0.486404 -0.107274 -3.01773e-21)
(0.511129 -0.100734 2.34507e-22)
(0.534408 -0.094048 3.64615e-21)
(0.556218 -0.0873516 1.76584e-22)
(0.576567 -0.0807629 1.60217e-22)
(0.595467 -0.0743828 1.37144e-22)
(0.613014 -0.0682875 -2.99677e-22)
(0.629084 -0.0625671 2.82517e-22)
(0.644418 -0.0571651 3.2188e-22)
(0.656842 -0.0525557 7.08125e-23)
(0.674147 -0.047067 3.58286e-24)
(0.300175 -0.177733 5.67449e-21)
(0.328521 -0.179764 5.04747e-22)
(0.354926 -0.180741 2.25978e-22)
(0.381811 -0.179717 -6.86427e-21)
(0.408489 -0.176737 -6.78612e-22)
(0.434353 -0.17215 -2.38106e-22)
(0.459264 -0.166251 6.98056e-21)
(0.483182 -0.159274 -4.04478e-21)
(0.506031 -0.151456 -3.66194e-21)
(0.527735 -0.143036 3.57039e-21)
(0.54825 -0.134241 -2.20538e-22)
(0.567559 -0.125274 -3.72942e-21)
(0.585665 -0.116315 -1.75112e-22)
(0.602591 -0.107515 -1.46214e-21)
(0.618352 -0.0990066 1.02345e-21)
(0.633046 -0.0908856 8.09423e-22)
(0.646538 -0.0832783 -7.24557e-22)
(0.659523 -0.0760789 0)
(0.66999 -0.0699911 -1.21099e-22)
(0.684824 -0.0626295 -1.57207e-23)
(0.39925 -0.21645 -9.7366e-21)
(0.423094 -0.218649 5.51944e-21)
(0.443926 -0.219639 -5.85822e-21)
(0.465215 -0.218055 0)
(0.48621 -0.214091 4.44303e-22)
(0.506231 -0.208247 7.11699e-21)
(0.525249 -0.200877 4.54355e-22)
(0.54336 -0.192251 -1.17194e-22)
(0.560571 -0.182652 -7.03111e-21)
(0.576865 -0.172369 -4.23688e-22)
(0.59225 -0.161676 0)
(0.606751 -0.150812 3.72034e-22)
(0.620397 -0.139987 0)
(0.633224 -0.129377 3.02654e-22)
(0.645251 -0.119136 0)
(0.656563 -0.109369 0)
(0.66702 -0.100241 -1.74962e-22)
(0.677237 -0.0915744 2.04206e-22)
(0.685435 -0.0843275 -1.79263e-22)
(0.697358 -0.0753963 5.26624e-23)
(0.510386 -0.246106 0)
(0.528335 -0.248467 3.31032e-22)
(0.542554 -0.249502 1.18253e-20)
(0.557203 -0.247408 -1.1452e-20)
(0.571517 -0.242582 3.95219e-22)
(0.584765 -0.23568 0)
(0.597027 -0.227096 6.81051e-21)
(0.608533 -0.217137 -1.31257e-20)
(0.619386 -0.206126 7.14234e-21)
(0.629633 -0.194399 3.95774e-22)
(0.639334 -0.182259 3.75632e-22)
(0.648554 -0.16997 3.50167e-22)
(0.657345 -0.157759 0)
(0.665747 -0.145816 -1.87167e-21)
(0.673769 -0.134306 4.24709e-21)
(0.681478 -0.123334 -1.84126e-21)
(0.688724 -0.113102 1.6491e-22)
(0.696008 -0.103344 1.20132e-22)
(0.701851 -0.09529 -5.04854e-23)
(0.710691 -0.0851358 4.97311e-23)
(0.626133 -0.265113 -7.78619e-21)
(0.636932 -0.267864 0)
(0.643948 -0.269112 3.19286e-22)
(0.651361 -0.266718 -7.26323e-22)
(0.658382 -0.261318 -7.71312e-22)
(0.664299 -0.253695 -3.91587e-22)
(0.66931 -0.244269 -4.00152e-22)
(0.673788 -0.2334 6.05536e-21)
(0.677954 -0.22146 -7.25893e-21)
(0.681924 -0.208814 -6.80543e-21)
(0.685804 -0.19578 5.64738e-21)
(0.689681 -0.182625 -6.83865e-22)
(0.693612 -0.16958 2.36254e-21)
(0.697627 -0.156831 -5.58444e-22)
(0.701714 -0.144553 -2.55881e-21)
(0.705901 -0.132838 -2.00237e-22)
(0.710037 -0.121933 2.32144e-22)
(0.714469 -0.111462 -2.94391e-22)
(0.718073 -0.102946 -4.42572e-22)
(0.72391 -0.0919194 -2.39708e-23)
(0.738742 -0.272775 0)
(0.741841 -0.276398 9.31551e-21)
(0.741684 -0.27812 -9.59543e-21)
(0.741729 -0.275791 3.53875e-22)
(0.7412 -0.270295 7.37847e-22)
(0.739584 -0.262435 3.91229e-22)
(0.737234 -0.252645 7.85113e-22)
(0.73467 -0.24135 0)
(0.732254 -0.229003 3.91873e-22)
(0.730174 -0.216 3.7804e-22)
(0.728549 -0.202656 3.51937e-22)
(0.727454 -0.189223 6.61612e-22)
(0.726917 -0.175911 0)
(0.726934 -0.162893 0)
(0.727459 -0.150342 2.34445e-22)
(0.728468 -0.138332 1.78236e-21)
(0.729816 -0.127161 -1.23266e-21)
(0.73167 -0.116333 1.10782e-22)
(0.7333 -0.107663 2.25456e-22)
(0.736401 -0.0960781 -6.54737e-23)
(0.841492 -0.270735 -7.01954e-21)
(0.837597 -0.276092 0)
(0.830645 -0.278435 0)
(0.823223 -0.276458 1.1078e-20)
(0.815043 -0.271202 3.23021e-22)
(0.806084 -0.263419 -2.36626e-20)
(0.796833 -0.253619 1.15913e-20)
(0.787834 -0.242314 0)
(0.779501 -0.230015 0)
(0.772083 -0.217118 0)
(0.765686 -0.20392 -1.75555e-22)
(0.760338 -0.190652 -4.83093e-22)
(0.756015 -0.177504 -4.44667e-21)
(0.752659 -0.164629 4.28593e-21)
(0.750187 -0.152197 -1.66144e-21)
(0.748514 -0.140257 1.46151e-21)
(0.747517 -0.129166 0)
(0.747174 -0.118304 -5.37822e-23)
(0.747166 -0.109765 -6.4924e-23)
(0.747947 -0.0979658 0)
(0.930681 -0.26251 1.137e-22)
(0.921465 -0.26782 9.17387e-21)
(0.907379 -0.269468 -9.07814e-21)
(0.891988 -0.267548 0)
(0.876385 -0.262707 -1.16671e-20)
(0.860927 -0.25555 2.35312e-20)
(0.845951 -0.246627 -1.18619e-20)
(0.831812 -0.236388 0)
(0.81883 -0.225171 -5.8219e-21)
(0.807222 -0.213255 1.13333e-20)
(0.79706 -0.200899 -5.68355e-21)
(0.788327 -0.188332 1.57302e-22)
(0.780963 -0.175757 0)
(0.774871 -0.163337 3.93768e-21)
(0.76995 -0.151274 -5.39223e-21)
(0.766062 -0.139607 1.60282e-21)
(0.763123 -0.128778 9.96246e-22)
(0.760924 -0.118053 -7.0415e-22)
(0.75956 -0.109798 -3.31666e-22)
(0.758451 -0.0980776 0)
(1.01074 -0.2333 0)
(0.990333 -0.238474 0)
(0.965984 -0.240994 0)
(0.942625 -0.241729 0)
(0.921251 -0.240367 0)
(0.901359 -0.236809 0)
(0.882671 -0.231329 0)
(0.865307 -0.224256 0)
(0.849454 -0.215844 0)
(0.835205 -0.206342 0)
(0.822564 -0.196003 0)
(0.81149 -0.185068 0)
(0.801922 -0.17377 0)
(0.793764 -0.1623 0)
(0.786932 -0.150904 0)
(0.781251 -0.139638 0)
(0.776717 -0.129019 0)
(0.772916 -0.118272 0)
(0.770389 -0.109935 0)
(0.767468 -0.0978966 0)
(1.03087 -0.208938 0)
(1.01119 -0.2156 0)
(0.98666 -0.21936 0)
(0.962913 -0.220796 0)
(0.94136 -0.22006 0)
(0.921361 -0.217277 0)
(0.902482 -0.212705 0)
(0.8848 -0.206652 0)
(0.868501 -0.199398 0)
(0.853671 -0.191187 0)
(0.840312 -0.18224 0)
(0.828393 -0.172755 0)
(0.817878 -0.16292 0)
(0.808693 -0.152888 0)
(0.800794 -0.142869 0)
(0.794002 -0.13289 0)
(0.788411 -0.123445 0)
(0.783432 -0.113758 0)
(0.780067 -0.106289 0)
(0.775504 -0.0952339 0)
(1.04003 -0.184324 0)
(1.0212 -0.191962 0)
(0.997672 -0.196739 0)
(0.974655 -0.199002 0)
(0.953672 -0.199166 0)
(0.934168 -0.197488 0)
(0.915674 -0.194182 0)
(0.898236 -0.189488 0)
(0.88204 -0.183643 0)
(0.867177 -0.176858 0)
(0.853653 -0.169325 0)
(0.841439 -0.161216 0)
(0.830515 -0.152704 0)
(0.820812 -0.143926 0)
(0.812319 -0.135082 0)
(0.804843 -0.126189 0)
(0.79857 -0.117729 0)
(0.792754 -0.108947 0)
(0.78879 -0.102195 0)
(0.783032 -0.0919768 0)
(1.04076 -0.161885 0)
(1.02349 -0.169985 0)
(1.00175 -0.175436 0)
(0.980224 -0.178426 0)
(0.960402 -0.17941 0)
(0.941874 -0.178696 0)
(0.924215 -0.176483 0)
(0.907452 -0.17296 0)
(0.891759 -0.168331 0)
(0.877232 -0.162786 0)
(0.863888 -0.156497 0)
(0.851709 -0.14962 0)
(0.840689 -0.142308 0)
(0.830771 -0.134682 0)
(0.821973 -0.126929 0)
(0.814088 -0.119054 0)
(0.807383 -0.111518 0)
(0.800986 -0.103592 0)
(0.796617 -0.0975023 0)
(0.789979 -0.0880824 0)
(1.03641 -0.141869 0)
(1.02094 -0.15004 0)
(1.00134 -0.15584 0)
(0.981662 -0.15934 0)
(0.96333 -0.160959 0)
(0.946056 -0.161013 0)
(0.92949 -0.159685 0)
(0.913651 -0.157136 0)
(0.898703 -0.153538 0)
(0.884742 -0.149061 0)
(0.8718 -0.143859 0)
(0.859873 -0.138068 0)
(0.848967 -0.131827 0)
(0.839037 -0.125242 0)
(0.830128 -0.118485 0)
(0.822023 -0.111552 0)
(0.81506 -0.104876 0)
(0.808265 -0.0977624 0)
(0.803622 -0.092299 0)
(0.796324 -0.0836728 0)
(1.02957 -0.124277 0)
(1.01584 -0.132235 0)
(0.998384 -0.138112 0)
(0.980637 -0.141903 0)
(0.963885 -0.143969 0)
(0.947952 -0.144602 0)
(0.932565 -0.143973 0)
(0.917749 -0.142215 0)
(0.903653 -0.139476 0)
(0.890376 -0.135903 0)
(0.877961 -0.131632 0)
(0.866413 -0.126784 0)
(0.855756 -0.121482 0)
(0.845949 -0.115822 0)
(0.837062 -0.109958 0)
(0.82887 -0.10388 0)
(0.821774 -0.097993 0)
(0.814714 -0.091636 0)
(0.809893 -0.0867579 0)
(0.802105 -0.0788985 0)
(1.02194 -0.108928 0)
(1.00973 -0.116458 0)
(0.994248 -0.122202 0)
(0.978322 -0.126095 0)
(0.963089 -0.128437 0)
(0.948456 -0.129484 0)
(0.934225 -0.129385 0)
(0.920428 -0.128253 0)
(0.907202 -0.126212 0)
(0.894644 -0.12339 0)
(0.882806 -0.119904 0)
(0.871702 -0.115864 0)
(0.861367 -0.111378 0)
(0.851766 -0.106529 0)
(0.842987 -0.101459 0)
(0.834801 -0.0961493 0)
(0.827659 -0.0909774 0)
(0.820434 -0.0853198 0)
(0.815506 -0.0809827 0)
(0.807361 -0.0738558 0)
(1.01444 -0.0954836 0)
(1.00351 -0.10246 0)
(0.989743 -0.107926 0)
(0.975446 -0.111781 0)
(0.961595 -0.11426 0)
(0.948159 -0.11558 0)
(0.935002 -0.115867 0)
(0.922165 -0.115218 0)
(0.909772 -0.113736 0)
(0.897918 -0.111529 0)
(0.886659 -0.108702 0)
(0.876017 -0.105348 0)
(0.866035 -0.101565 0)
(0.856684 -0.0974243 0)
(0.848066 -0.0930541 0)
(0.839947 -0.0884317 0)
(0.83282 -0.0839042 0)
(0.825505 -0.0788892 0)
(0.820522 -0.0750487 0)
(0.812123 -0.0686185 0)
(1.0075 -0.0836058 0)
(0.997607 -0.0899734 0)
(0.985297 -0.0950744 0)
(0.972418 -0.0987872 0)
(0.959788 -0.101294 0)
(0.947423 -0.102772 0)
(0.935235 -0.103329 0)
(0.923272 -0.103044 0)
(0.911649 -0.102002 0)
(0.900455 -0.100296 0)
(0.88975 -0.0980162 0)
(0.879562 -0.0952437 0)
(0.869939 -0.0920644 0)
(0.860855 -0.0885403 0)
(0.852426 -0.0847861 0)
(0.844412 -0.0807761 0)
(0.83734 -0.0768278 0)
(0.829989 -0.0724013 0)
(0.82499 -0.0690153 0)
(0.816418 -0.0632455 0)
(1.00125 -0.0730174 0)
(0.992197 -0.0787599 0)
(0.981114 -0.083443 0)
(0.969451 -0.0869403 0)
(0.957885 -0.0893907 0)
(0.94646 -0.0909381 0)
(0.935131 -0.0916693 0)
(0.923951 -0.0916496 0)
(0.913024 -0.0909502 0)
(0.902435 -0.0896484 0)
(0.892246 -0.0878214 0)
(0.882487 -0.0855397 0)
(0.873212 -0.0828782 0)
(0.864396 -0.0798901 0)
(0.856167 -0.0766776 0)
(0.848279 -0.0732134 0)
(0.841289 -0.0697852 0)
(0.833941 -0.065898 0)
(0.828951 -0.0629276 0)
(0.82027 -0.0577828 0)
(0.995702 -0.0634906 0)
(0.987333 -0.0686109 0)
(0.977276 -0.0728477 0)
(0.966649 -0.0760792 0)
(0.956 -0.0784104 0)
(0.945395 -0.0799559 0)
(0.934819 -0.0807853 0)
(0.924331 -0.0809515 0)
(0.914025 -0.0805129 0)
(0.903982 -0.079534 0)
(0.894262 -0.0780804 0)
(0.8849 -0.0762124 0)
(0.875953 -0.073995 0)
(0.867397 -0.0714734 0)
(0.859368 -0.0687381 0)
(0.851616 -0.0657611 0)
(0.844722 -0.0628011 0)
(0.837403 -0.0594085 0)
(0.832442 -0.0568189 0)
(0.8237 -0.052266 0)
(0.990819 -0.0548384 0)
(0.983012 -0.0593507 0)
(0.973815 -0.0631288 0)
(0.964064 -0.0660608 0)
(0.954201 -0.0682259 0)
(0.944304 -0.0697142 0)
(0.934384 -0.0705809 0)
(0.924501 -0.0708679 0)
(0.914743 -0.070623 0)
(0.905185 -0.0698994 0)
(0.895888 -0.0687522 0)
(0.886886 -0.0672326 0)
(0.878241 -0.0653964 0)
(0.869929 -0.0632818 0)
(0.862093 -0.0609679 0)
(0.85448 -0.0584273 0)
(0.847687 -0.05589 0)
(0.840416 -0.052953 0)
(0.835494 -0.0507132 0)
(0.826727 -0.0467219 0)
(0.986564 -0.0469082 0)
(0.979218 -0.0508313 0)
(0.970737 -0.0541479 0)
(0.961723 -0.0567586 0)
(0.952527 -0.0587228 0)
(0.943236 -0.0601112 0)
(0.933881 -0.0609664 0)
(0.924524 -0.0613215 0)
(0.915244 -0.061215 0)
(0.906112 -0.0606904 0)
(0.897188 -0.0597937 0)
(0.888509 -0.0585675 0)
(0.880137 -0.0570593 0)
(0.872049 -0.055301 0)
(0.864394 -0.053361 0)
(0.856915 -0.0512134 0)
(0.850226 -0.0490596 0)
(0.843012 -0.0465441 0)
(0.838137 -0.0446273 0)
(0.82937 -0.0411701 0)
(0.9829 -0.039572 0)
(0.975933 -0.0429263 0)
(0.968043 -0.0457842 0)
(0.959644 -0.0480598 0)
(0.951009 -0.049798 0)
(0.942231 -0.0510532 0)
(0.933357 -0.0518584 0)
(0.924448 -0.0522391 0)
(0.915579 -0.0522259 0)
(0.906816 -0.051854 0)
(0.898218 -0.0511612 0)
(0.889822 -0.0501825 0)
(0.881692 -0.0489577 0)
(0.873806 -0.0475131 0)
(0.866315 -0.0459069 0)
(0.858963 -0.0441153 0)
(0.852372 -0.0423118 0)
(0.845221 -0.0401884 0)
(0.840393 -0.0385716 0)
(0.831646 -0.0356246 0)
(0.9798 -0.0327206 0)
(0.973138 -0.0355258 0)
(0.965732 -0.0379307 0)
(0.957838 -0.0398633 0)
(0.949666 -0.0413571 0)
(0.941315 -0.042454 0)
(0.932843 -0.0431789 0)
(0.924312 -0.0435513 0)
(0.91579 -0.043595 0)
(0.90734 -0.0433381 0)
(0.89902 -0.042811 0)
(0.890867 -0.042042 0)
(0.882947 -0.0410637 0)
(0.875237 -0.0398975 0)
(0.867892 -0.0385916 0)
(0.860655 -0.0371252 0)
(0.854156 -0.0356441 0)
(0.847066 -0.0338881 0)
(0.842287 -0.0325519 0)
(0.833568 -0.0300941 0)
(0.977239 -0.0262578 0)
(0.970821 -0.0285322 0)
(0.9638 -0.030491 0)
(0.956312 -0.0320763 0)
(0.948515 -0.0333131 0)
(0.940511 -0.0342329 0)
(0.932367 -0.0348543 0)
(0.924145 -0.0351918 0)
(0.91591 -0.0352637 0)
(0.907718 -0.0350918 0)
(0.89963 -0.0346997 0)
(0.891681 -0.0341099 0)
(0.883938 -0.0333482 0)
(0.876378 -0.0324314 0)
(0.869158 -0.0313986 0)
(0.862021 -0.0302321 0)
(0.855603 -0.0290505 0)
(0.848571 -0.0276415 0)
(0.843836 -0.0265696 0)
(0.83515 -0.0245833 0)
(0.975194 -0.0201001 0)
(0.968964 -0.0218595 0)
(0.962244 -0.023379 0)
(0.955073 -0.0246148 0)
(0.947569 -0.0255857 0)
(0.939837 -0.0263147 0)
(0.931952 -0.0268153 0)
(0.923975 -0.0270978 0)
(0.915966 -0.0271757 0)
(0.907981 -0.0270652 0)
(0.900078 -0.0267842 0)
(0.892293 -0.0263495 0)
(0.884693 -0.0257808 0)
(0.877255 -0.0250907 0)
(0.870138 -0.0243092 0)
(0.863085 -0.0234226 0)
(0.856734 -0.0225219 0)
(0.849754 -0.0214435 0)
(0.845056 -0.0206228 0)
(0.836402 -0.0190938 0)
(0.973646 -0.0141828 0)
(0.967558 -0.0154377 0)
(0.961061 -0.0165216 0)
(0.954124 -0.0174054 0)
(0.946838 -0.018103 0)
(0.939309 -0.0186306 0)
(0.931617 -0.0189971 0)
(0.923822 -0.0192094 0)
(0.915983 -0.0192766 0)
(0.908153 -0.0192099 0)
(0.90039 -0.0190218 0)
(0.892729 -0.018724 0)
(0.885237 -0.0183302 0)
(0.877893 -0.0178496 0)
(0.870855 -0.0173027 0)
(0.863866 -0.0166808 0)
(0.857568 -0.0160465 0)
(0.850628 -0.0152868 0)
(0.845961 -0.0147057 0)
(0.837335 -0.0136245 0)
(0.972591 -0.00841762 0)
(0.966605 -0.00918332 0)
(0.960262 -0.00983947 0)
(0.953483 -0.0103724 0)
(0.946341 -0.010793 0)
(0.938947 -0.0111124 0)
(0.931383 -0.0113359 0)
(0.923711 -0.0114675 0)
(0.915985 -0.0115123 0)
(0.908258 -0.0114771 0)
(0.900588 -0.0113691 0)
(0.893009 -0.0111955 0)
(0.88559 -0.010964 0)
(0.878309 -0.0106807 0)
(0.871324 -0.0103566 0)
(0.86438 -0.00998891 0)
(0.858117 -0.00961001 0)
(0.851207 -0.00916194 0)
(0.846557 -0.00880935 0)
(0.837954 -0.00817341 0)
(0.972031 -0.00270514 0)
(0.966117 -0.00300072 0)
(0.959861 -0.00324197 0)
(0.953166 -0.00343184 0)
(0.946097 -0.00357876 0)
(0.938768 -0.00368915 0)
(0.931267 -0.00376617 0)
(0.923654 -0.00381174 0)
(0.915984 -0.00382795 0)
(0.908309 -0.00381726 0)
(0.900684 -0.00378219 0)
(0.893147 -0.00372524 0)
(0.885764 -0.00364888 0)
(0.878514 -0.00355539 0)
(0.871556 -0.00344786 0)
(0.864636 -0.00332655 0)
(0.858387 -0.00319982 0)
(0.851498 -0.00305311 0)
(0.846849 -0.00293255 0)
(0.838263 -0.00272602 0)
(1.11765 0.0690796 1.91245e-21)
(1.12884 0.0419266 0)
(1.13636 0.0130834 -3.51689e-22)
(1.13981 -0.0173296 -1.07849e-20)
(1.13914 -0.0490993 1.67587e-20)
(1.13327 -0.0820978 0)
(1.12265 -0.115922 1.25014e-20)
(1.10152 -0.150962 0)
(1.07981 -0.183649 9.96221e-21)
(1.022 -0.22265 -1.66752e-22)
(1.10016 0.060663 -2.20495e-21)
(1.11031 0.0370747 4.4623e-22)
(1.11735 0.0120255 -4.4708e-22)
(1.12062 -0.0143868 -1.26116e-21)
(1.12123 -0.0419199 -1.04725e-20)
(1.11645 -0.0707682 -6.19539e-22)
(1.11134 -0.0997085 0)
(1.09345 -0.131812 -1.61386e-20)
(1.08613 -0.157743 0)
(1.04205 -0.19929 -1.32721e-20)
(1.08513 0.0528027 4.54575e-21)
(1.09389 0.0320934 0)
(1.1002 0.0102323 -4.3195e-22)
(1.10291 -0.0128305 -6.77508e-22)
(1.10435 -0.0364808 1.11057e-20)
(1.09995 -0.0618142 0)
(1.0983 -0.0857166 1.94919e-20)
(1.08336 -0.115097 1.66317e-20)
(1.08123 -0.134903 0)
(1.05127 -0.174663 1.31362e-20)
(1.07237 0.0459966 -2.05647e-21)
(1.07983 0.0278027 8.58066e-21)
(1.08539 0.0087926 0)
(1.08747 -0.0114111 1.36231e-20)
(1.0892 -0.0316356 7.59686e-22)
(1.08513 -0.0541295 -1.44994e-21)
(1.08467 -0.0739242 -1.86955e-20)
(1.07273 -0.100744 -6.28168e-22)
(1.07061 -0.116744 -1.85122e-20)
(1.05118 -0.152129 0)
(1.06144 0.0401174 0)
(1.06783 0.0241243 -8.36238e-21)
(1.07266 0.00757927 -9.51413e-21)
(1.07422 -0.0102179 1.39348e-21)
(1.07572 -0.0275981 -8.99221e-22)
(1.07205 -0.0476514 -7.45784e-22)
(1.07127 -0.0644097 -2.22074e-20)
(1.06204 -0.0883785 -1.3078e-21)
(1.05864 -0.102125 -1.04347e-21)
(1.04579 -0.132401 1.83869e-20)
(1.05195 0.0349797 2.63044e-21)
(1.0575 0.0209094 5.68979e-22)
(1.06163 0.00646774 -1.44249e-21)
(1.06282 -0.00924427 5.19778e-22)
(1.06381 -0.0243118 -1.48928e-20)
(1.0606 -0.0420764 0)
(1.05903 -0.0565826 2.43141e-20)
(1.05188 -0.0774755 -7.30086e-22)
(1.04743 -0.0897513 4.1273e-20)
(1.03809 -0.11532 -3.7874e-20)
(1.04364 0.0304517 -2.64339e-21)
(1.0485 0.0180851 -4.99971e-21)
(1.05201 0.00545474 8.89726e-21)
(1.05296 -0.00837908 -1.59399e-20)
(1.05339 -0.0215397 -1.66136e-21)
(1.0506 -0.0371175 -1.43242e-20)
(1.04833 -0.0498912 7.73732e-22)
(1.04248 -0.0678549 -1.48447e-21)
(1.03745 -0.0790279 -2.05066e-20)
(1.02979 -0.100612 1.94757e-20)
(1.03635 0.0264443 0)
(1.04064 0.0156037 1.07868e-20)
(1.04359 0.00455044 -1.17533e-21)
(1.04435 -0.00757144 8.76981e-21)
(1.04433 -0.0191234 -5.86622e-22)
(1.04182 -0.0326784 2.83594e-20)
(1.03908 -0.0440401 -1.28908e-20)
(1.03393 -0.0594259 0)
(1.02867 -0.0696111 0)
(1.02178 -0.0878804 0)
(1.02996 0.0228895 0)
(1.03376 0.0134211 -9.83421e-21)
(1.03623 0.00375451 -6.28936e-22)
(1.03682 -0.00681631 8.80502e-21)
(1.03643 -0.016974 1.62166e-20)
(1.03407 -0.0287137 -1.58317e-20)
(1.03107 -0.0388344 1.54908e-20)
(1.02627 -0.0520063 -8.38096e-22)
(1.02099 -0.0612185 0)
(1.01448 -0.0767283 1.12441e-20)
(1.02438 0.0197297 3.48544e-22)
(1.02774 0.0114967 5.61324e-21)
(1.02981 0.00306408 8.80273e-21)
(1.03022 -0.00611072 -5.13015e-22)
(1.02956 -0.0150251 1.10238e-21)
(1.02725 -0.0251571 -1.68478e-20)
(1.0241 -0.0341293 1.65018e-20)
(1.01949 -0.0454049 -8.64753e-22)
(1.01427 -0.053657 0)
(1.00797 -0.0668485 -2.27065e-20)
(1.01952 0.0169146 0)
(1.02251 0.00979652 5.52597e-21)
(1.02422 0.00247547 1.85611e-22)
(1.02446 -0.00544499 0)
(1.02358 -0.013227 0)
(1.02127 -0.0219383 1.49249e-20)
(1.01805 -0.0298306 -1.36956e-20)
(1.01354 -0.0394715 -8.29363e-22)
(1.00838 -0.0467922 4.35689e-22)
(1.00222 -0.0580057 1.1837e-20)
(1.01532 0.0143994 0)
(1.01797 0.00829142 -1.05034e-20)
(1.01939 0.00198244 -1.16151e-20)
(1.01946 -0.00480787 1.78985e-21)
(1.01842 -0.0115462 -1.15485e-21)
(1.01607 -0.0189964 -9.97028e-22)
(1.01279 -0.025872 1.90415e-21)
(1.00835 -0.0340855 1.24326e-20)
(1.00324 -0.0405115 1.2266e-21)
(0.99719 -0.0500109 -3.84441e-22)
(1.01172 0.0121427 0)
(1.01408 0.00695495 5.65411e-21)
(1.01526 0.00157596 -6.40744e-22)
(1.01517 -0.00418965 6.35428e-22)
(1.01398 -0.00995962 0)
(1.01159 -0.0162793 0)
(1.00827 -0.0221982 0)
(1.00386 -0.0291463 -1.41246e-20)
(0.998784 -0.0347172 1.32867e-20)
(0.992821 -0.0427111 0)
(1.00867 0.0101106 0)
(1.01078 0.00576349 3.60068e-21)
(1.01175 0.00124516 4.71415e-21)
(1.01152 -0.00358319 6.23603e-21)
(1.01022 -0.00844947 -1.19536e-21)
(1.00778 -0.0137434 7.57102e-21)
(1.00442 -0.0187607 -6.92018e-21)
(1.00003 -0.0245713 0)
(0.994974 -0.0293257 6.49733e-22)
(0.989073 -0.0359802 -1.27347e-20)
(1.00612 0.00826674 -7.84322e-22)
(1.00803 0.00469823 -2.91487e-21)
(1.00883 0.000981468 -6.09222e-21)
(1.00848 -0.00298218 -4.38616e-21)
(1.00708 -0.00700075 0)
(1.00459 -0.0113527 -9.65413e-21)
(1.0012 -0.0155176 9.91689e-21)
(0.996825 -0.0202915 -9.46387e-22)
(0.991772 -0.0242646 -6.57108e-21)
(0.985911 -0.0297112 1.84345e-20)
(1.00406 0.00656019 7.88356e-22)
(1.00579 0.00373105 -2.25274e-21)
(1.00645 0.000771391 2.05922e-21)
(1.00601 -0.00238471 -5.15148e-21)
(1.00453 -0.00560192 0)
(1.002 -0.00907754 0)
(0.998572 -0.0124318 9.77244e-22)
(0.994203 -0.0162479 -9.28705e-21)
(0.989146 -0.0194697 -5.85542e-21)
(0.983307 -0.0238114 -6.15217e-21)
(1.00245 0.0049743 0)
(1.00404 0.00284403 3.71168e-21)
(1.00459 0.000603024 -1.38122e-21)
(1.00407 -0.00179145 4.5775e-21)
(1.00253 -0.00424545 1.23725e-21)
(0.999964 -0.00689572 -1.07221e-21)
(0.996509 -0.00947314 2.03268e-21)
(0.992136 -0.0123914 6.44313e-21)
(0.987069 -0.0148859 0)
(0.981237 -0.0182001 0)
(1.00127 0.00349823 0)
(1.00275 0.0020267 1.51271e-21)
(1.00321 0.000468722 -2.8107e-21)
(1.00263 -0.0012026 0)
(1.00105 -0.00292607 -2.42306e-21)
(0.998456 -0.00479182 -1.07987e-21)
(0.994978 -0.00662048 -3.04149e-21)
(0.990598 -0.00868731 -9.05925e-22)
(0.985516 -0.0104739 4.65431e-22)
(0.979677 -0.0128186 4.00014e-22)
(1.00048 0.00211306 0)
(1.00188 0.00127564 -1.52e-21)
(1.00229 0.000383738 -1.39965e-21)
(1.00167 -0.000583618 1.95758e-21)
(1.00006 -0.00159354 1.1726e-21)
(0.997452 -0.00269897 1.11991e-21)
(0.993958 -0.00379636 5.07945e-21)
(0.989568 -0.00504541 -3.74426e-21)
(0.984469 -0.00614262 8.77628e-22)
(0.978613 -0.00757155 0)
(1.00006 0.00069597 0)
(1.00144 0.000502912 7.486e-22)
(1.00182 0.000283981 -7.20344e-22)
(1.00118 2.56341e-05 6.86456e-22)
(0.999557 -0.000264489 0)
(0.996941 -0.000606155 -1.1256e-21)
(0.993434 -0.000966369 1.00022e-21)
(0.98903 -0.00140013 9.05461e-22)
(0.983909 -0.00180637 0)
(0.978035 -0.0023497 0)
(0.816586 0.247181 0)
(0.806752 0.273232 -4.53676e-20)
(0.80136 0.30472 0)
(0.797254 0.342829 -1.48738e-19)
(0.792735 0.38781 5.64214e-20)
(0.786538 0.440222 1.64735e-21)
(0.773666 0.49704 4.8382e-20)
(0.735186 0.541503 -5.93142e-21)
(0.620689 0.520801 0)
(0.336571 0.300527 5.02385e-20)
(0.854322 0.247383 8.38846e-20)
(0.849403 0.276714 4.53662e-20)
(0.850328 0.307526 -4.30748e-20)
(0.85181 0.345117 4.99436e-20)
(0.852998 0.389738 -4.31295e-20)
(0.853102 0.441276 5.892e-21)
(0.846077 0.496041 -5.02582e-20)
(0.809949 0.536006 -9.91987e-20)
(0.687142 0.508884 -2.61973e-20)
(0.370148 0.286657 -7.35167e-20)
(0.89408 0.243163 -3.74042e-20)
(0.894238 0.272524 3.84305e-20)
(0.899543 0.302629 4.30734e-20)
(0.905509 0.339654 4.40417e-20)
(0.912024 0.383462 4.48118e-20)
(0.918024 0.433337 4.51354e-20)
(0.915891 0.484842 6.81109e-21)
(0.880353 0.51875 4.31301e-20)