/*--------------------------------*- C++ -*----------------------------------*\
| =========                 |                                                 |
| \\      /  F ield         | OpenFOAM: The Open Source CFD Toolbox           |
|  \\    /   O peration     | Version:  4.1                                   |
|   \\  /    A nd           | Web:      www.OpenFOAM.org                      |
|    \\/     M anipulation  |                                                 |
\*---------------------------------------------------------------------------*/
FoamFile
{
    version     2.0;
    format      ascii;
    class       surfaceScalarField;
    location    "14.5";
    object      phi;
}
// * * * * * * * * * * * * * * * * * * * * * * * * * * * * * * * * * * * * * //

dimensions      [0 3 -1 0 0 0 0];

internalField   nonuniform List<scalar> 
3890
(
0.000415763
0.00150137
-0.00191713
0.00254419
-0.000985685
-0.00114275
0.00694923
-0.0069488
0.00254377
0.013806
-0.0150827
0.00822595
0.0227962
-0.024111
0.0151207
0.0332423
-0.0329149
0.0224687
0.0443545
-0.0407473
0.0296351
0.0555427
-0.0472753
0.0360872
0.0662789
-0.0526993
0.0419632
-0.0562069
0.0464378
0.0760481
0.000708743
0.000792622
0.00378449
-0.00406143
0.00971648
-0.0128808
0.018263
-0.0236292
0.0285329
-0.0343809
0.0394396
-0.0438216
0.0501
-0.0514077
0.0600058
-0.0571812
0.0687914
-0.0614849
-0.0644323
0.0770168
0.00110206
-0.000309442
0.00529121
-0.00825058
0.0127145
-0.020304
0.0224151
-0.0333299
0.0329394
-0.0449052
0.0430858
-0.053968
0.052208
-0.0605299
0.0601531
-0.0651262
0.067109
-0.0684409
-0.0708914
0.0735681
0.00158853
-0.00189798
0.0069457
-0.0136077
0.0154974
-0.0288557
0.0254679
-0.0433004
0.0351745
-0.0546118
0.0437123
-0.0625058
0.0509117
-0.0677293
0.0570495
-0.0712641
0.0625294
-0.0739208
-0.0761508
0.0677889
0.00214585
-0.00404382
0.00853639
-0.0199983
0.0175537
-0.037873
0.0268669
-0.0526136
0.0350432
-0.0627881
0.0417207
-0.0691833
0.04718
-0.0731885
0.0519057
-0.0759898
0.0563293
-0.0783444
-0.0806507
0.0608292
0.00272411
-0.00676793
0.0097969
-0.0270711
0.0185126
-0.0465887
0.0265103
-0.0606113
0.032917
-0.0691948
0.0378801
-0.0741464
0.0419237
-0.0772321
0.045554
-0.0796201
0.0491235
-0.0819139
-0.0843344
0.0528072
0.00324703
-0.010015
0.0104953
-0.0343194
0.018276
-0.0543694
0.0246595
-0.0669948
0.0293645
-0.0738998
0.0328651
-0.077647
0.0357483
-0.0801153
0.0384432
-0.0823149
0.0411789
-0.0846496
-0.0872147
0.0440592
0.00362488
-0.0136398
0.0105125
-0.041207
0.0169764
-0.0608333
0.0217106
-0.071729
0.0248954
-0.0770846
0.0271554
-0.079907
0.0290316
-0.0819916
0.0308412
-0.0841245
0.0327215
-0.08653
-0.0892057
0.0347125
0.00378306
-0.0174229
0.00986435
-0.0472883
0.0148577
-0.0658266
0.0180438
-0.0749151
0.0199006
-0.0789414
0.0210782
-0.0810846
0.0220224
-0.0829357
0.022948
-0.0850501
0.0239227
-0.0875047
-0.0902491
0.0249661
0.003688
-0.0211109
0.00868254
-0.0522828
0.0121886
-0.0693327
0.0139738
-0.0767003
0.0146664
-0.0796341
0.0148645
-0.0812826
0.0149082
-0.0829795
0.0149325
-0.0850744
0.0149669
-0.087539
0.0150228
-0.090305
-0.000514171
0.000514171
-0.00151603
0.00100186
-0.00272761
0.00121157
-0.00399575
0.00126814
-0.00523349
0.00123773
-0.00639342
0.00115993
-0.00745504
0.00106162
-0.00841896
0.000963929
-0.00930644
0.000887478
0.000857415
-0.0101639
-0.00047952
0.000993691
-0.00141011
0.00193245
-0.00252811
0.00232957
-0.00368057
0.0024206
-0.00477747
0.00233464
-0.00576538
0.00214784
-0.00661528
0.00191151
-0.00731886
0.00166752
-0.00788854
0.00145716
0.0013439
-0.00837503
-0.000414661
0.00140835
-0.00121384
0.00273163
-0.00215097
0.0032667
-0.00307747
0.00334711
-0.00389943
0.00315659
-0.00455306
0.00280147
-0.00499342
0.00235188
-0.00519518
0.00186928
-0.00515551
0.00141748
0.00107283
-0.00488445
-0.00033123
0.00173958
-0.000949629
0.00335003
-0.00162859
0.00394566
-0.00222367
0.00394219
-0.00263659
0.00356952
-0.0027925
0.00295737
-0.00262676
0.00218614
-0.0020825
0.00132502
-0.00112587
0.000460861
-0.000216765
0.000163727
-0.000241165
0.00198075
-0.000643029
0.00375189
-0.000991947
0.00429457
-0.00114252
0.00409276
-0.000988096
0.0034151
-0.000441266
0.00241054
0.000577759
0.00116711
0.00214583
-0.000243053
0.00433334
-0.00172665
-0.0031186
0.00723517
-0.000155
0.00213575
-0.000313496
0.00391039
-0.000257458
0.00423854
0.000173064
0.00366224
0.0011067
0.00248146
0.00264886
0.00086838
0.00488913
-0.00107316
0.0078995
-0.00325342
0.0117295
-0.00555668
-0.0080793
0.0166902
-7.91625e-05
0.00221491
3.74141e-05
0.00379381
0.000587391
0.00368856
0.00177493
0.0024747
0.0037639
0.000492488
0.00668299
-0.00205071
0.0106143
-0.00500448
0.0155895
-0.00822865
0.0215348
-0.0115019
-0.015475
0.0289305
-1.14947e-06
0.00221606
0.000426558
0.0033661
0.00160319
0.00251192
0.00377956
0.000298331
0.00716024
-0.00288819
0.0118674
-0.00675782
0.0179234
-0.0110605
0.0252342
-0.0155394
0.0336092
-0.019877
-0.0251749
0.0433091
8.4336e-05
0.00213172
0.000920955
0.00252948
0.00291297
0.000519906
0.00637608
-0.00316477
0.0115009
-0.00801305
0.0183085
-0.0135654
0.026647
-0.0193991
0.0361824
-0.0250748
0.0467123
-0.0304069
-0.0360334
0.0575709
0.000214594
0.00160133
0.004665
0.00972618
0.0168339
0.0257372
0.0359733
0.0469857
0.0585419
0.0689463
-0.0105234
0.000359527
-0.010842
0.000318566
-0.0111082
0.000266223
-0.0113244
0.000216252
-0.0114942
0.000169732
-0.0116206
0.000126468
-0.0117069
8.62817e-05
-0.0117559
4.89842e-05
-0.0117702
1.42733e-05
-0.011755
-1.51975e-05
-0.0117153
-3.96998e-05
-0.0116548
-6.05017e-05
-0.0115788
-7.59616e-05
-0.0114941
-8.46887e-05
-0.0114087
-8.54626e-05
-0.0113311
-7.76061e-05
-0.0112694
-6.16356e-05
-0.0112297
-3.97689e-05
-0.0112136
-1.60274e-05
3.1093e-06
-0.00864657
0.000631074
-0.00888468
0.000556673
-0.0090791
0.000460644
-0.0092334
0.000370555
-0.0093503
0.000286636
-0.00943233
0.000208501
-0.00948192
0.000135874
-0.00950166
6.87271e-05
-0.00949095
3.5666e-06
-0.0094602
-4.59508e-05
-0.00940827
-9.16326e-05
-0.00933854
-0.000130227
-0.00925536
-0.000159143
-0.00916421
-0.000175831
-0.00907189
-0.000177783
-0.00898636
-0.000163142
-0.00891606
-0.000131932
-0.00886834
-8.74925e-05
-0.00884672
-3.7646e-05
3.44732e-06
-0.00500736
0.000753985
-0.00509198
0.00064129
-0.00515402
0.000522688
-0.00519104
0.000407574
-0.00520505
0.000300641
-0.00519864
0.000202092
-0.00517308
0.000110314
-0.00512582
2.14649e-05
-0.0050696
-5.26546e-05
-0.00499726
-0.000118296
-0.00491159
-0.0001773
-0.0048149
-0.000226919
-0.0047097
-0.000264348
-0.00459927
-0.000286256
-0.0044881
-0.000288959
-0.00438222
-0.000269019
-0.00428951
-0.000224644
-0.00421909
-0.000157906
-0.00417867
-7.80639e-05
-8.80292e-06
0.000372822
0.00054489
0.000458026
0.000556087
0.00055376
0.000426954
0.000667611
0.000293723
0.000788631
0.000179621
0.000916718
7.40059e-05
0.00105372
-2.66858e-05
0.0011842
-0.000109013
0.00131967
-0.000188132
0.00146125
-0.000259874
0.00160678
-0.000322829
0.00175502
-0.000375161
0.00190481
-0.000414129
0.00205472
-0.000436169
0.00220284
-0.000437083
0.00234609
-0.000412267
0.00247926
-0.000357814
0.00259362
-0.000272265
0.00267746
-0.000161905
-5.39504e-05
0.00757806
0.000201997
0.00785644
0.00027771
0.00812405
0.000159346
0.00840367
1.41026e-05
0.00866492
-8.16332e-05
0.00890902
-0.000170094
0.00913976
-0.000257425
0.00937215
-0.000341408
0.00960259
-0.000418568
0.00982999
-0.000487274
0.0100536
-0.000546441
0.0102727
-0.000594251
0.0104866
-0.000628046
0.0106948
-0.000644356
0.0108969
-0.000639234
0.0110925
-0.000607851
0.0112804
-0.000545675
0.0114558
-0.000447701
0.011609
-0.000315111
-0.000161788
0.0171653
-0.000273093
0.0175551
-0.000112098
0.0179241
-0.00020962
0.0182713
-0.00033315
0.0186145
-0.000424819
0.018946
-0.00050154
0.0192686
-0.000580047
0.0195853
-0.000658148
0.0198968
-0.000730036
0.0202024
-0.000792829
0.0205011
-0.000845163
0.0207919
-0.000885038
0.0210737
-0.000909911
0.0213458
-0.000916416
0.0216081
-0.000901544
0.0218609
-0.00086061
0.0221063
-0.000791079
0.0223436
-0.000684996
0.0225759
-0.000547477
-0.000350894
0.0293721
-0.000714684
0.0297218
-0.000461836
0.0300885
-0.000576302
0.0304691
-0.000713772
0.0308451
-0.000800765
0.0312164
-0.000872899
0.0315883
-0.00095195
0.0319613
-0.00103114
0.032333
-0.00110166
0.0327006
-0.00116052
0.0330623
-0.0012068
0.0334156
-0.00123831
0.0337587
-0.00125303
0.0340898
-0.0012475
0.034409
-0.00122082
0.0347157
-0.00116728
0.035015
-0.00109038
0.0353043
-0.000974263
0.0356056
-0.000848816
-0.00062129
0.043534
-0.000939561
0.0438021
-0.000729989
0.0441411
-0.000915326
0.0445137
-0.0010863
0.0449022
-0.00118932
0.0453105
-0.0012812
0.0457374
-0.00137886
0.0461747
-0.00146844
0.0466152
-0.0015421
0.0470538
-0.00159911
0.0474868
-0.00163987
0.0479105
-0.00166198
0.0483227
-0.0016652
0.0487205
-0.00164533
0.0491055
-0.00160582
0.0494749
-0.00153669
0.0498384
-0.00145388
0.0501875
-0.00132338
0.0505552
-0.00121648
-0.000976236
0.0576486
-0.0010173
0.0580155
-0.00109693
0.0584892
-0.00138895
0.058976
-0.0015731
0.0594838
-0.00169716
0.0600193
-0.00181666
0.0605696
-0.00192917
0.0611229
-0.00202181
0.0616741
-0.0020933
0.0622197
-0.00214468
0.0627573
-0.00217741
0.0632836
-0.00218833
0.0637986
-0.00218017
0.0642995
-0.00214621
0.0647903
-0.00209664
0.0652667
-0.00201313
0.0657415
-0.00192871
0.0662045
-0.00178629
0.0666838
-0.00169584
-0.0014623
0.0696275
-0.00169855
0.0705218
-0.0019912
0.071288
-0.00215515
0.0720164
-0.00230153
0.0727442
-0.00242497
0.0734645
-0.00253691
0.0741727
-0.00263734
0.0748712
-0.00272038
0.0755639
-0.00278594
0.0762518
-0.0028326
0.0769369
-0.00286248
0.0776188
-0.00287029
0.0783005
-0.0028618
0.0789799
-0.00282568
0.0796626
-0.00277928
0.0803441
-0.0026947
0.0810351
-0.00261971
0.0817289
-0.00248002
0.0824388
-0.00240578
-0.00219528
0.095755
-0.000906807
-0.0965467
0.0949439
-0.00118006
0.0942306
-0.00144186
0.0936024
-0.00167337
0.0930501
-0.00187269
0.0925569
-0.0020437
0.0921077
-0.00218813
0.0916925
-0.00230516
0.091305
-0.00239845
0.0909398
-0.00246736
0.0905935
-0.00251623
0.0902628
-0.00253962
0.0899477
-0.00254661
0.0896462
-0.00252419
0.0893609
-0.002494
0.0890912
-0.002425
0.0888407
-0.00236923
0.0886123
-0.0022516
0.0884034
-0.00219687
-0.00202406
0.104031
-0.00059459
-0.104343
0.103674
-0.000822908
0.103281
-0.00104878
0.102885
-0.00127726
0.1025
-0.00148798
0.102126
-0.00167032
0.101763
-0.00182486
0.10141
-0.0019524
0.101069
-0.00205698
0.100738
-0.00213665
0.100419
-0.00219663
0.10011
-0.00223057
0.0998122
-0.00224926
0.0995265
-0.00223845
0.0992542
-0.00222173
0.0989964
-0.00216717
0.0987539
-0.00212669
0.0985311
-0.00202889
0.098322
-0.00198768
-0.00184389
0.110457
-0.000276922
-0.110775
0.110196
-0.000561672
0.10995
-0.00080253
0.109703
-0.00103111
0.109458
-0.0012424
0.109214
-0.00142648
0.108972
-0.00158289
0.108732
-0.00171201
0.108493
-0.00181877
0.108258
-0.00190082
0.108025
-0.00196447
0.107797
-0.00200258
0.107575
-0.00202729
0.10736
-0.00202318
0.107154
-0.00201521
0.106957
-0.00197064
0.106772
-0.00194106
0.1066
-0.00185721
0.106438
-0.00182565
-0.00169967
0.116108
-3.88328e-05
-0.116346
0.115915
-0.000368301
0.115747
-0.00063491
0.115582
-0.000866093
0.115414
-0.00107485
0.115246
-0.00125826
0.115079
-0.00141556
0.114912
-0.00154527
0.114746
-0.00165272
0.114581
-0.00173531
0.114417
-0.00180073
0.114255
-0.00184095
0.114098
-0.00186965
0.113944
-0.00186993
0.113798
-0.00186847
0.113658
-0.00183094
0.113527
-0.00180978
0.113405
-0.00173552
0.113291
-0.00171144
-0.00159713
0.121602
9.95568e-05
-0.12174
0.121472
-0.000238108
0.121353
-0.000516124
0.121235
-0.000748577
0.121114
-0.000953379
0.120989
-0.00113337
0.120863
-0.00128926
0.120735
-0.00141811
0.120608
-0.0015253
0.12048
-0.00160759
0.120354
-0.00167394
0.120228
-0.00171544
0.120106
-0.0017472
0.119987
-0.00175087
0.119873
-0.00175472
0.119765
-0.00172278
0.119663
-0.00170847
0.11957
-0.00164182
0.119482
-0.00162379
-0.00151914
0.127345
0.000184869
-0.12743
0.127247
-0.00013989
0.127147
-0.000416382
0.127046
-0.000647617
0.126941
-0.000848455
0.126831
-0.00102352
0.126718
-0.00117589
0.126602
-0.00130236
0.126485
-0.00140831
0.126367
-0.0014897
0.12625
-0.00155634
0.126133
-0.00159862
0.126018
-0.00163272
0.125907
-0.00163929
0.1258
-0.00164748
0.125697
-0.00162063
0.125601
-0.00161187
0.125511
-0.00155238
0.125427
-0.00153915
-0.00144409
0.133402
0.000262694
-0.13348
0.133305
-4.29263e-05
0.1332
-0.000311342
0.133091
-0.000538741
0.132978
-0.000735227
0.132859
-0.000904829
0.132736
-0.00105253
0.132609
-0.00117569
0.132481
-0.00127981
0.132351
-0.0013602
0.132222
-0.00142686
0.132093
-0.00146999
0.131966
-0.001506
0.131843
-0.00151563
0.131723
-0.0015275
0.131608
-0.00150597
0.131498
-0.00150181
0.131396
-0.00144998
0.131297
-0.00144059
-0.00135605
0.139538
0.000354272
-0.13963
0.139428
6.70631e-05
0.139306
-0.000188998
0.139178
-0.000410501
0.139044
-0.000601363
0.138904
-0.000765095
0.138759
-0.000907659
0.138611
-0.00102719
0.13846
-0.00112918
0.138309
-0.00120878
0.138157
-0.00127549
0.138007
-0.00131996
0.137859
-0.00135781
0.137714
-0.00137109
0.137573
-0.00138634
0.137438
-0.0013709
0.137307
-0.0013708
0.137185
-0.00132763
0.137066
-0.00132147
-0.00124884
0.14536
0.000456773
-0.145463
0.145239
0.000188359
0.145104
-5.38886e-05
0.144961
-0.000267419
0.14481
-0.000451022
0.144654
-0.000608332
0.144491
-0.000745368
0.144325
-0.000861085
0.144157
-0.000960688
0.143988
-0.00103968
0.143819
-0.00110645
0.143651
-0.00115278
0.143486
-0.0011925
0.143325
-0.00121011
0.143167
-0.00122863
0.143017
-0.00122009
0.14287
-0.00122377
0.142732
-0.00119027
0.142598
-0.00118697
-0.00112745
0.150491
0.000550265
-0.150584
0.150378
0.000301078
0.150252
7.19551e-05
0.150115
-0.000129791
0.149969
-0.000305031
0.149815
-0.000454688
0.149655
-0.000585291
0.14949
-0.000696648
0.149323
-0.000793326
0.149155
-0.00087146
0.148986
-0.000938016
0.14882
-0.000986251
0.148655
-0.00102768
0.148495
-0.00104979
0.148337
-0.00107136
0.148187
-0.00106998
0.148041
-0.00107714
0.147904
-0.00105363
0.14777
-0.00105293
-0.00100678
0.154775
0.000600138
-0.154825
0.154705
0.00037072
0.15462
0.000156787
0.154521
-3.05646e-05
0.154411
-0.000194942
0.154291
-0.000334941
0.154164
-0.000457768
0.154031
-0.000563534
0.153893
-0.000656081
0.153754
-0.000732216
0.153614
-0.000797565
0.153474
-0.000846789
0.153336
-0.000889126
0.153201
-0.000914897
0.153068
-0.000938832
0.152942
-0.000943707
0.152819
-0.000953809
0.152704
-0.000939242
0.152592
-0.000940815
-0.000906682
0.158464
0.000569812
-0.158433
0.158471
0.000363163
0.15846
0.000168627
0.158431
-1.98222e-06
0.158388
-0.000151664
0.158332
-0.000279622
0.158267
-0.000392419
0.158194
-0.000490245
0.158114
-0.000576552
0.15803
-0.000648457
0.157944
-0.000710742
0.157856
-0.000758833
0.157767
-0.000800491
0.15768
-0.000827779
0.157594
-0.000852735
0.157512
-0.000861575
0.157431
-0.000873601
0.157358
-0.000865401
0.157285
-0.000868694
-0.000843509
0.162271
0.000442873
-0.162144
0.16237
0.000263861
0.162445
9.36354e-05
0.1625
-5.68894e-05
0.162537
-0.00018809
0.162558
-0.000301033
0.162567
-0.000401078
0.162564
-0.000488021
0.162553
-0.000565398
0.162535
-0.000630088
0.162511
-0.000686815
0.162483
-0.000730819
0.162452
-0.000769593
0.16242
-0.000795385
0.162386
-0.000819501
0.162354
-0.000829108
0.162322
-0.000841667
0.162293
-0.000836292
0.162265
-0.000840566
-0.000820272
0.167162
0.000243587
-0.166963
0.16733
9.60432e-05
0.167469
-4.5844e-05
0.167585
-0.000172619
0.167681
-0.000283525
0.167759
-0.000379048
0.167822
-0.000464077
0.167871
-0.0005376
0.16791
-0.000603704
0.167938
-0.000658531
0.167959
-0.000707467
0.167973
-0.000744715
0.167982
-0.000778578
0.167986
-0.000800138
0.167988
-0.00082166
0.167988
-0.000829152
0.167988
-0.000840898
0.167987
-0.000835215
0.167986
-0.000839711
-0.000820843
0.173843
3.57713e-05
-0.173635
0.174019
-7.99224e-05
0.174166
-0.000192809
0.174288
-0.000294846
0.17439
-0.000385405
0.174474
-0.000463088
0.174542
-0.000532539
0.174596
-0.000591853
0.174639
-0.000645843
0.17467
-0.000689787
0.174692
-0.000729977
0.174707
-0.000759336
0.174716
-0.000787311
0.174719
-0.000803418
0.174719
-0.000821403
0.174715
-0.000825489
0.17471
-0.000835602
0.174703
-0.000828259
0.174695
-0.000832429
-0.000813581
0.182189
-0.000112796
-0.18204
0.182309
-0.000200286
0.182403
-0.000286581
0.182474
-0.000365862
0.182526
-0.000437518
0.182562
-0.000498733
0.182583
-0.000553715
0.182591
-0.000599866
0.182588
-0.000642448
0.182574
-0.000676252
0.182552
-0.000708079
0.182523
-0.000730134
0.182488
-0.000752368
0.182448
-0.000763553
0.182405
-0.000777949
0.182359
-0.000779182
0.18231
-0.000787451
0.182261
-0.000779126
0.182212
-0.000782709
-0.000764723
0.191144
-0.000173971
-0.191083
0.191181
-0.000237366
0.191195
-0.000300516
0.191188
-0.000359219
0.191164
-0.000413209
0.191124
-0.000459263
0.191071
-0.000500854
0.191007
-0.00053518
0.190932
-0.000567231
0.190847
-0.000592092
0.190755
-0.000616147
0.190657
-0.000632052
0.190554
-0.00064893
0.190447
-0.000656423
0.190336
-0.000667419
0.190224
-0.000667171
0.19011
-0.000673584
0.189997
-0.000665872
0.189883
-0.000668742
-0.000653504
0.199273
-0.000160109
-0.199287
0.199238
-0.000202417
0.199182
-0.000244221
0.199106
-0.000283034
0.199012
-0.000319229
0.198903
-0.000350158
0.19878
-0.000378246
0.198646
-0.000401146
0.198502
-0.000422698
0.198349
-0.000439151
0.198188
-0.00045538
0.198022
-0.000465786
0.19785
-0.000477212
0.197675
-0.000481869
0.197497
-0.000489336
0.197319
-0.000488688
0.197138
-0.00049308
0.19696
-0.000487297
0.19678
-0.000489288
-0.000478366
0.205402
-9.28246e-05
-0.205469
0.205315
-0.000116122
0.205208
-0.000137211
0.205082
-0.000156296
0.204937
-0.000174238
0.204776
-0.000189667
0.204602
-0.000203701
0.204416
-0.000215131
0.204219
-0.000225878
0.204014
-0.000234099
0.203801
-0.000242174
0.203582
-0.00024738
0.203358
-0.000253006
0.203131
-0.000255342
0.202901
-0.000258928
0.202671
-0.000258642
0.202439
-0.000260617
0.202209
-0.000257821
0.201978
-0.000258508
-0.000252977
0.208714
-0.208807
0.208598
0.208461
0.208304
0.20813
0.207941
0.207737
0.207522
0.207296
0.207062
0.20682
0.206572
0.206319
0.206064
0.205805
0.205546
0.205286
0.205028
0.204769
0.0944518
0.0139629
-0.093392
0.095493
0.0239249
0.0965416
0.033664
0.0975621
0.0430387
0.0985936
0.0517757
0.0995559
0.0598668
0.100239
0.067106
0.100856
0.0729505
0.098854
0.0790192
0.0783553
0.0979428
0.0130424
-0.0970222
0.0988866
0.0229811
0.0998911
0.0326595
0.100941
0.0419887
0.101976
0.0507409
0.103175
0.0586676
0.103969
0.0663117
0.105311
0.071609
0.105412
0.0789183
0.079424
0.101772
0.0122499
-0.10098
0.102652
0.022101
0.103599
0.0317128
0.104685
0.0409022
0.105702
0.0497243
0.107024
0.0573458
0.108043
0.0652921
0.109433
0.0702191
0.110682
0.0776695
0.0793313
0.105735
0.0115496
-0.105034
0.106606
0.0212302
0.107559
0.0307598
0.108722
0.039739
0.109837
0.048609
0.111206
0.0559767
0.112506
0.0639924
0.113792
0.0689328
0.115414
0.0760473
0.0783997
0.10962
0.0109011
-0.108971
0.110525
0.0203249
0.111577
0.0297082
0.112868
0.0384474
0.114213
0.0472641
0.115678
0.054512
0.117244
0.0624258
0.118622
0.0675555
0.120341
0.0743279
0.0770006
0.113209
0.010263
-0.112571
0.114181
0.019353
0.115404
0.028486
0.116884
0.0369674
0.11854
0.0456081
0.120251
0.0528002
0.122132
0.0605453
0.123844
0.065843
0.125735
0.0724374
0.0753052
0.116309
0.00960095
-0.115647
0.117375
0.0182864
0.118803
0.0270581
0.120531
0.0352393
0.122541
0.0435984
0.12465
0.0506912
0.126947
0.0582484
0.129152
0.063638
0.131429
0.0701603
0.0732545
0.118809
0.00889308
-0.118101
0.119989
0.017106
0.121625
0.0254227
0.123632
0.0332319
0.126008
0.0412221
0.128582
0.0481171
0.131386
0.0554449
0.134167
0.0608567
0.137045
0.0672825
0.0706697
0.120751
0.00812896
-0.119986
0.122046
0.0158109
0.123864
0.0236046
0.126131
0.0309651
0.128846
0.0385067
0.131858
0.0451053
0.135192
0.0521108
0.138574
0.0574747
0.142171
0.0636849
0.0673784
0.122369
0.00730827
-0.121548
0.123757
0.0144229
0.12571
0.0216514
0.128167
0.0285081
0.131145
0.0355282
0.134497
0.0417535
0.138293
0.0483151
0.142222
0.0535459
0.146513
0.0593936
0.0633071
0.124093
0.00643713
-0.123222
0.125533
0.012983
0.127558
0.0196264
0.130111
0.0259557
0.13324
0.032399
0.136795
0.0381987
0.140897
0.044213
0.145233
0.0492098
0.150049
0.0545771
0.0585318
0.126477
0.00554533
-0.125585
0.127922
0.0115384
0.129954
0.0175936
0.132516
0.0233942
0.135679
0.0292355
0.139303
0.0345755
0.143522
0.0399938
0.148078
0.0446534
0.15317
0.0494855
0.053268
0.130019
0.00467793
-0.129151
0.131429
0.0101279
0.133427
0.0155963
0.135953
0.0208677
0.139079
0.0261092
0.142691
0.0309638
0.146891
0.0357944
0.15151
0.0400343
0.156656
0.0443388
0.0477805
0.134914
0.00387956
-0.134116
0.136276
0.00876631
0.138235
0.0136364
0.140747
0.0183557
0.143851
0.0230059
0.147469
0.0273455
0.151643
0.0316205
0.156284
0.0353933
0.161417
0.0392054
0.0422347
0.140854
0.00317203
-0.140146
0.142186
0.00743405
0.144155
0.0116676
0.146731
0.0157796
0.149914
0.0198235
0.153654
0.0236049
0.157942
0.0273324
0.162719
0.0306162
0.167977
0.0339482
0.0365766
0.147073
0.00253514
-0.146436
0.148424
0.0060831
0.150478
0.00961345
0.153218
0.0130395
0.156618
0.0164235
0.160636
0.0195868
0.165246
0.0227228
0.170371
0.0254911
0.176016
0.0283026
0.0305526
0.152704
0.00191504
-0.152084
0.154127
0.00466031
0.156334
0.00740666
0.159308
0.010065
0.163024
0.0127079
0.16743
0.0151809
0.172511
0.0176416
0.178164
0.0198386
0.184416
0.0220499
0.0238863
0.157231
0.0012724
-0.156588
0.158745
0.00314608
0.16112
0.00503182
0.164332
0.00685223
0.16837
0.00867073
0.173173
0.0103779
0.178739
0.0120751
0.184962
0.013616
0.191868
0.0151433
0.0164675
0.160526
0.000626274
-0.159879
0.162095
0.00157673
0.164587
0.00253943
0.167973
0.00346631
0.17225
0.00439448
0.177359
0.00526858
0.183299
0.00613516
0.189982
0.00693295
0.197412
0.00771309
0.00841057
0.16237
-0.161743
0.163946
0.166486
0.169952
0.174347
0.179615
0.18575
0.192683
0.200396
0.0439651
0.0531409
-0.0468751
-0.0502309
0.0377429
0.0517539
-0.0455317
0.031943
0.0508572
-0.0450572
0.026468
0.0505409
-0.045066
0.0211976
0.05071
-0.0454395
0.0160613
0.0513496
-0.0462133
0.011037
0.0523448
-0.0473205
0.00623456
0.0525963
-0.0477939
0.00213903
0.0479209
-0.0438254
0.0278374
-0.0256984
0.0422373
0.0593835
-0.0484799
0.0361607
0.0578304
0.0303967
0.0566212
0.024977
0.0559607
0.0198194
0.0558675
0.0148376
0.0563315
0.0100095
0.0571729
0.00547882
0.057127
0.0017651
0.0516346
0.0296025
0.0396111
0.065326
-0.0455536
0.0337961
0.0636454
0.0282158
0.0622015
0.0229462
0.0612302
0.0179624
0.0608513
0.0131984
0.0610954
0.0086475
0.0617238
0.00449371
0.0612808
0.00128553
0.0548428
0.0308881
0.0358765
0.0709178
-0.0414683
0.0304564
0.0690654
0.0252288
0.0674292
0.0202638
0.0661953
0.0155709
0.0655442
0.011118
0.0655482
0.00693837
0.0659034
0.00327764
0.0649415
0.000698512
0.0574219
0.0315866
0.0310881
0.0760684
-0.0362387
0.0261475
0.074006
0.0214006
0.0721761
0.0168837
0.0707122
0.0126124
0.0698156
0.00858246
0.0695781
0.00487058
0.0696153
0.00182514
0.067987
-2.37248e-05
0.0592708
0.0315629
0.0252506
0.0806221
-0.0298043
0.0209157
0.0783409
0.0167706
0.0763212
0.0128244
0.0746585
0.00909074
0.0735492
0.00559518
0.0730737
0.0024619
0.0727486
3.21737e-05
0.0704167
-0.000702771
0.0600057
0.0308601
0.0184757
0.0844274
-0.0222811
0.0148634
0.0819532
0.0114218
0.0797629
0.00814853
0.0779317
0.00505506
0.0766427
0.00220547
0.0759233
-0.000189103
0.0751432
-0.00158293
0.0718105
-0.00143034
0.0598532
0.0294298
0.0108853
0.0873569
-0.0138149
0.00809884
0.0847397
0.00545334
0.0824084
0.00294344
0.0804416
0.000583972
0.0790021
-0.00152093
0.0780282
-0.00304991
0.0766721
-0.00344031
0.0722009
-0.00215226
0.0585651
0.0272775
0.0026417
0.0893626
-0.00464741
0.000766635
0.0866147
-0.00100978
0.0841848
-0.00270971
0.0821415
-0.00427898
0.0805714
-0.0055442
0.0792934
-0.00610918
0.0772371
-0.00532856
0.0714203
-0.00281617
0.0560527
0.0244613
-0.00604096
0.00509855
-0.00696526
-0.00785492
-0.00869288
-0.0094041
-0.00974478
-0.00920794
-0.00712033
-0.00335041
0.0332444
0.00313647
-0.0363809
0.029983
0.00326146
0.0265763
0.0034067
0.0230031
0.00357321
0.0192343
0.00376875
0.0152349
0.00399936
0.0109835
0.00425147
0.006563
0.00442048
0.00243346
0.00412953
0.00243346
0.0338484
0.0064073
-0.0371192
0.0304682
0.00664166
0.0269581
0.00691685
0.0232964
0.00723488
0.0194536
0.00761148
0.0153936
0.00805945
0.0110913
0.00855375
0.00662624
0.00888552
0.00246437
0.0082914
0.00489784
0.0349945
0.00993381
-0.038521
0.031388
0.0102482
0.0276802
0.0106246
0.0238491
0.011066
0.0198641
0.0115964
0.0156873
0.0122363
0.0112906
0.0129504
0.00674727
0.0134289
0.00251349
0.0125252
0.00741133
0.0365637
0.0138099
-0.0404398
0.032646
0.0141659
0.0286652
0.0146054
0.0245994
0.0151317
0.0204176
0.0157782
0.0160797
0.0165742
0.0115533
0.0174769
0.00690326
0.0180789
0.00257708
0.0168514
0.0099884
0.0383921
0.0180941
-0.0426763
0.0341073
0.0184507
0.0298027
0.01891
0.0254589
0.0194756
0.0210445
0.0201926
0.0165169
0.0211018
0.011839
0.0221548
0.00706779
0.0228501
0.00264191
0.0212772
0.0126303
0.0402968
0.0228047
-0.0450074
0.0356185
0.023129
0.0309641
0.0235644
0.0263207
0.0241189
0.0216577
0.0248556
0.01693
0.0258295
0.0120963
0.0269884
0.00720659
0.0277398
0.00269192
0.0257919
0.0153222
0.0420597
0.0279527
-0.0472077
0.036986
0.0282027
0.0319918
0.0285587
0.0270651
0.0290456
0.0221671
0.0297537
0.0172499
0.0307467
0.0122728
0.0319656
0.0072838
0.0327288
0.00271017
0.0303655
0.0180324
0.0435712
0.033521
-0.0491396
0.0380852
0.0336887
0.0327602
0.0338837
0.0275741
0.0342316
0.0224702
0.0348576
0.0173956
0.0358213
0.0123094
0.0370518
0.00726101
0.0377772
0.00267901
0.0349475
0.0207114
0.0443783
0.0396253
-0.0504826
0.0385668
0.0395002
0.0330548
0.0393957
0.0277044
0.039582
0.0224575
0.0401046
0.0172819
0.0409969
0.0121434
0.0421902
0.00709802
0.0428226
0.00258097
0.0394646
0.0232924
0.0445967
-0.0518465
0.0385653
0.0329037
0.0274197
0.0220848
0.0168684
0.0117381
0.00676683
0.00240603
0.0400284
-0.000106217
0.0401344
-0.000106002
0.040237
-0.00010263
0.040332
-9.49734e-05
0.0404157
-8.37394e-05
0.0404848
-6.90924e-05
0.0405354
-5.06067e-05
0.0405629
-2.75379e-05
0.0405613
1.6898e-06
0.0405288
3.24218e-05
0.0404584
7.04426e-05
0.0403426
0.000115761
0.0401732
0.000169414
0.0399404
0.000232807
0.0396327
0.000307698
0.0392365
0.000396221
0.0387354
0.000501103
0.0381099
0.000625492
0.0373362
0.000773716
0.000955279
0.0409076
-0.000214242
0.0410127
-0.000211085
0.0411128
-0.000202786
0.0412048
-0.000186969
0.0412855
-0.00016438
0.0413513
-0.000134888
0.0413982
-9.75776e-05
0.0414217
-5.09858e-05
0.0414164
6.99141e-06
0.0413792
6.96012e-05
0.0413033
0.000146397
0.0411811
0.000237887
0.0410044
0.000346175
0.0407631
0.00047408
0.0404457
0.000625132
0.0400383
0.000803589
0.0395244
0.00101496
0.0388845
0.00126542
0.0380946
0.00156362
0.00193065
0.0426361
-0.000312483
0.0427326
-0.000307514
0.0428245
-0.000294677
0.0429081
-0.00027058
0.04298
-0.000236262
0.0430365
-0.000191468
0.0430737
-0.000134753
0.0430864
-6.36787e-05
0.0430709
2.25251e-05
0.0430217
0.000118737
0.0429324
0.000235732
0.0427953
0.000374992
0.0426017
0.000539738
0.0423416
0.00073423
0.0420029
0.000963804
0.0415717
0.00123482
0.041031
0.00155568
0.040361
0.00193543
0.0395381
0.00238642
0.00294778
0.0451509
-0.00039108
0.0452274
-0.000384069
0.0452996
-0.000366892
0.0453636
-0.000334564
0.0454155
-0.000288181
0.0454515
-0.000227447
0.0454672
-0.000150424
0.0454575
-5.39917e-05
0.0454205
5.95409e-05
0.0453474
0.000191785
0.0452322
0.000350994
0.045067
0.000540157
0.044843
0.00076375
0.0445496
0.00102757
0.0441747
0.00133879
0.0437035
0.00170596
0.0431189
0.00214032
0.0424
0.0026543
0.0415252
0.0032612
0.00403326
0.0483656
-0.000432296
0.0484044
-0.000422921
0.0484387
-0.000401197
0.0484648
-0.000360583
0.0484786
-0.000301977
0.0484762
-0.000225123
0.0484534
-0.000127557
0.0484004
-9.99234e-07
0.0483235
0.000136461
0.0482078
0.000307434
0.0480477
0.000511064
0.0478355
0.000752433
0.0475617
0.00103746
0.0472156
0.00137375
0.0467843
0.00177003
0.0462527
0.00223758
0.0456034
0.00278967
0.0448129
0.00344473
0.0438642
0.00420991
0.00522116
0.0521792
-0.000410953
0.0521549
-0.000398619
0.052125
-0.00037129
0.0520863
-0.000321895
0.052035
-0.000250668
0.0519664
-0.000156603
0.0518747
-3.58094e-05
0.0517648
0.000108865
0.0516182
0.000283076
0.0514329
0.000492705
0.0512019
0.000742147
0.0509164
0.00103791
0.0505673
0.00138658
0.0501425
0.00179852
0.0496295
0.00228299
0.0490108
0.00285636
0.0482703
0.00353014
0.0473792
0.00433582
0.0463316
0.00525746
0.0065454
0.0564862
-0.000294126
0.056365
-0.000277356
0.056236
-0.000242365
0.0560977
-0.000183568
0.055947
-9.99491e-05
0.0557789
1.1456e-05
0.0555926
0.000150501
0.0553788
0.000322707
0.0551311
0.000530753
0.0548434
0.000780398
0.0545089
0.00107666
0.0541181
0.00142873
0.0536623
0.00184232
0.0531279
0.00233293
0.0525045
0.00290638
0.0517695
0.00359143
0.0509109
0.00438871
0.0498815
0.00536523
0.0486905
0.00644841
0.00802822
0.0611897
-3.60706e-05
0.060927
-1.47057e-05
0.0606551
2.95558e-05
0.0603745
9.70861e-05
0.0600833
0.000191255
0.0597774
0.000317295
0.0594499
0.000478007
0.0590948
0.000677783
0.0587065
0.000919083
0.0582773
0.00120961
0.0578009
0.00155302
0.0572661
0.00196359
0.0566661
0.00244232
0.0559823
0.0030167
0.0552113
0.00367742
0.0543189
0.0044838
0.0533173
0.00539027
0.0521295
0.00655306
0.0508137
0.00776422
0.00970237
0.0662113
0.000413269
0.0657502
0.0004464
0.0652821
0.000497672
0.0648111
0.000568072
0.064334
0.000668411
0.0638431
0.000808186
0.0633315
0.000989599
0.0627925
0.00121675
0.0622215
0.00149013
0.0616096
0.00182144
0.0609524
0.00221027
0.0602352
0.00268081
0.0594562
0.00322126
0.0585874
0.00388549
0.0576393
0.00462559
0.0565464
0.00557661
0.0553638
0.00657295
0.0539249
0.00799192
0.052445
0.00924411
0.0116648
0.071499
0.00116242
0.0707673
0.00117805
0.0700495
0.00121554
0.069342
0.00127552
0.0686343
0.00137611
0.0679139
0.00152865
0.0671735
0.00172997
0.0664074
0.00198281
0.0656132
0.00228436
0.0647816
0.00265302
0.0639105
0.00308142
0.0629829
0.00360841
0.0620049
0.00419925
0.0609421
0.00494827
0.0598302
0.00573746
0.0585793
0.00682752
0.0573281
0.00782411
0.0557627
0.00955731
0.0543514
0.0106554
0.0141697