/*--------------------------------*- C++ -*----------------------------------*\
| =========                 |                                                 |
| \\      /  F ield         | OpenFOAM: The Open Source CFD Toolbox           |
|  \\    /   O peration     | Version:  4.1                                   |
|   \\  /    A nd           | Web:      www.OpenFOAM.org                      |
|    \\/     M anipulation  |                                                 |
\*---------------------------------------------------------------------------*/
FoamFile
{
    version     2.0;
    format      ascii;
    class       volScalarField;
    location    "13.8";
    object      p;
}
// * * * * * * * * * * * * * * * * * * * * * * * * * * * * * * * * * * * * * //

dimensions      [0 2 -2 0 0 0 0];

internalField   nonuniform List<scalar> 
2000
(
-0.0815001
-0.0717011
-0.0628411
-0.054451
-0.0466437
-0.0392777
-0.0319317
-0.0253201
-0.0176724
-0.0150539
-0.0994179
-0.0860499
-0.0748593
-0.064414
-0.0544778
-0.044912
-0.0355824
-0.0267433
-0.0177734
-0.0117058
-0.120927
-0.103454
-0.0896873
-0.0767126
-0.0638109
-0.0510926
-0.0387421
-0.0270163
-0.0157479
-0.00587123
-0.145914
-0.123858
-0.107141
-0.0907042
-0.0735661
-0.0565339
-0.0402859
-0.0251836
-0.0110109
0.00112801
-0.17343
-0.146564
-0.126189
-0.104793
-0.081928
-0.0595527
-0.0388269
-0.0200365
-0.00313182
0.0115216
-0.201643
-0.170059
-0.144694
-0.11649
-0.0866212
-0.0583034
-0.032888
-0.0104774
0.00919155
0.02631
-0.227635
-0.191874
-0.159567
-0.122848
-0.0853105
-0.0510091
-0.021091
0.00472578
0.0270142
0.046585
-0.247745
-0.208531
-0.167366
-0.121073
-0.0759358
-0.03611
-0.00215806
0.02668
0.0514321
0.0733088
-0.258184
-0.215966
-0.164862
-0.108907
-0.0568672
-0.0123162
0.0249921
0.0563512
0.0832433
0.106974
-0.255609
-0.210467
-0.149323
-0.0847035
-0.0269617
0.0213007
0.0611625
0.0944407
0.123
0.147911
-0.00937697
-0.0126957
-0.013832
-0.0143275
-0.0145018
-0.0143461
-0.0138745
-0.0131288
-0.0121992
-0.0112828
-0.010967
-0.0140741
-0.0150735
-0.0154731
-0.0155532
-0.0152879
-0.014679
-0.0137435
-0.0125407
-0.0114244
-0.0140384
-0.0167012
-0.0174434
-0.017635
-0.0175083
-0.0170102
-0.0161169
-0.0148158
-0.0130715
-0.0113463
-0.0183628
-0.0203885
-0.0207298
-0.0205798
-0.0201207
-0.0192608
-0.0179364
-0.0161305
-0.0136256
-0.0100686
-0.0237136
-0.0249352
-0.0247062
-0.0240571
-0.0231317
-0.0217988
-0.0199241
-0.0174101
-0.0138066
-0.00892988
-0.0299433
-0.0301962
-0.0291838
-0.0278488
-0.026311
-0.0244074
-0.0219219
-0.0186714
-0.0140372
-0.00634985
-0.0370597
-0.0361402
-0.0340691
-0.0318266
-0.0294782
-0.0268751
-0.0236966
-0.0196835
-0.0146947
-0.00321687
-0.0452854
-0.0428098
-0.0395096
-0.0360493
-0.0326404
-0.0291527
-0.0251621
-0.0202584
-0.0154965
-0.00125741
-0.0550381
-0.0506226
-0.0457514
-0.0408215
-0.0361492
-0.0315924
-0.0266766
-0.0210085
-0.0158647
-0.00198586
-0.0668895
-0.0600687
-0.0533198
-0.0467483
-0.0406248
-0.0348264
-0.0288449
-0.0229042
-0.0165645
-0.0077492
-0.0105395
-0.00959351
-0.00858616
-0.00757458
-0.00656846
-0.00558055
-0.00462505
-0.00371434
-0.00285964
-0.0020719
-0.00136235
-0.000743023
-0.000227127
0.000171342
0.000440877
0.000573548
0.000544728
0.000283343
-0.00019451
-0.000331995
-0.0109984
-0.00995989
-0.00883354
-0.00774399
-0.00667477
-0.00563033
-0.00462412
-0.00366735
-0.00276994
-0.00194191
-0.00119393
-0.000537824
1.28298e-05
0.000442674
0.000736556
0.000881566
0.000852571
0.000578076
3.93084e-05
-0.000258787
-0.0117982
-0.0105145
-0.00916025
-0.0079321
-0.00674928
-0.00560284
-0.00450542
-0.00346579
-0.00249175
-0.00159207
-0.000776939
-5.85173e-05
0.000548381
0.00102673
0.00135599
0.00151331
0.00146901
0.00115851
0.000522142
-8.13554e-05
-0.0132306
-0.0109615
-0.0093126
-0.0079362
-0.00661514
-0.00534075
-0.00412658
-0.00297844
-0.00190345
-0.000910045
-8.38259e-06
0.000787405
0.00145617
0.00198086
0.00233639
0.0024881
0.00239902
0.00201912
0.0012442
0.000143326
-0.0132211
-0.0117207
-0.00942413
-0.00765777
-0.00619343
-0.00479792
-0.00345376
-0.00216931
-0.000965697
0.000146468
0.00115859
0.00205598
0.00277997
0.00333309
0.00369044
0.0038071
0.0036313
0.00309068
0.00208397
0.000627377
-0.0135431
-0.0125969
-0.00935029
-0.00695474
-0.00531829
-0.0038194
-0.00239188
-0.000962051
0.000374102
0.00160277
0.00272107
0.00376575
0.00447256
0.005014
0.00534762
0.00539456
0.00509268
0.00434692
0.00306218
0.00108897
-0.0133311
-0.0140734
-0.0101574
-0.0071181
-0.00518257
-0.00343069
-0.00154724
0.000183372
0.00172944
0.00310326
0.0043092
0.00526338
0.00617617
0.0068114
0.00713444
0.00708267
0.00663491
0.00563355
0.00402189
0.00152816
-0.0132734
-0.0152477
-0.0104338
-0.0064195
-0.00419208
-0.00231763
-0.000314539
0.00159478
0.00328677
0.0047746
0.00607023
0.00714554
0.00801671
0.00861114
0.00887268
0.00872651
0.00807297
0.00675884
0.00481208
0.00184592
-0.0130522
-0.0147598
-0.00947105
-0.00537236
-0.00311274
-0.0010534
0.00111311
0.0031059
0.00484656
0.0063819
0.00772237
0.00882889
0.00967557
0.0101952
0.010342
0.0100084
0.0091509
0.00757795
0.00530398
0.00196936
-0.016766
-0.0147181
-0.00902017
-0.00537771
-0.00266426
5.26718e-05
0.00256564
0.00468178
0.00647314
0.00801777
0.00932463
0.0103525
0.0110835
0.0114532
0.0114455
0.0109161
0.00986106
0.00803981
0.00553328
0.00200287
-0.0054512
-0.0030342
-0.00244337
-0.00122302
0.000805718
0.00303865
0.00505818
0.00679282
0.00830139
0.00960242
0.0106834
0.0114928
0.012012
0.0121622
0.0119323
0.0111798
0.0099294
0.00794729
0.00536672
0.00189108
-0.00327046
-0.000811248
0.000840541
0.00247251
0.0043069
0.00610973
0.00770586
0.00907468
0.0102479
0.0112221
0.011984
0.0124845
0.0127057
0.0125715
0.0120759
0.0110948
0.00966037
0.00758469
0.00501258
0.00170749
0.00451637
0.00468484
0.00593187
0.00748459
0.00885666
0.0099912
0.0109589
0.0118
0.0125144
0.0130675
0.0134327
0.0135623
0.0134367
0.0129912
0.0122157
0.0110149
0.00940993
0.00727724
0.00472267
0.00161773
0.0135053
0.0113386
0.0116802
0.0128228
0.0136859
0.0141698
0.0144826
0.0147448
0.0149558
0.0150578
0.0150048
0.0147496
0.0142689
0.0135124
0.012461
0.0110509
0.00928246
0.00709466
0.00453581
0.00158219
0.0230463
0.0192098
0.018338
0.0186312
0.0188232
0.0186423
0.0182901
0.0179376
0.017604
0.0172251
0.0167358
0.0160853
0.0152433
0.0141727
0.0128461
0.0112259
0.00929279
0.00703078
0.00444104
0.00156827
0.0331389
0.0279113
0.0256199
0.0248193
0.024202
0.0233301
0.0223152
0.0213331
0.0204288
0.0195459
0.0186065
0.0175532
0.0163472
0.0149601
0.0133596
0.0115242
0.00942317
0.00706244
0.00441949
0.00156259
0.0435003
0.0369062
0.0331949
0.031248
0.0297576
0.028168
0.0264879
0.0248744
0.023389
0.0219884
0.0205896
0.0191286
0.0175582
0.0158534
0.0139797
0.0119229
0.00964878
0.0071673
0.00445171
0.00156114
0.0536643
0.0458439
0.0408651
0.0378147
0.0354299
0.0330964
0.0307465
0.0285072
0.0264422
0.0245198
0.0226571
0.0207861
0.0188522
0.0168295
0.0146829
0.0123994
0.00994595
0.00732733
0.00452173
0.00156613
0.0633739
0.0545742
0.0485099
0.0444208
0.0411436
0.0380432
0.0350231
0.0321695
0.029537
0.0270995
0.0247758
0.0224971
0.020203
0.0178655
0.0154473
0.0129351
0.0102965
0.0075309
0.00462013
0.00158348
0.0725325
0.0630071
0.0560094
0.0509382
0.0467756
0.0429212
0.0392371
0.0357943
0.0326178
0.0296815
0.026908
0.024231
0.0215845
0.0189398
0.0162539
0.0135158
0.0106879
0.00777182
0.00474256
0.00161875
0.0810472
0.0710352
0.0632326
0.0572297
0.0522018
0.0476184
0.043306
0.0393155
0.0356253
0.0322168
0.029014
0.0259556
0.0229704
0.020031
0.0170853
0.0141283
0.0111103
0.0080447
0.00488628
0.00167387
0.0887985
0.078528
0.0700441
0.0631686
0.0573178
0.0520557
0.0471954
0.0426735
0.0385068
0.034659
0.0310541
0.027638
0.0243336
0.0211167
0.0179235
0.0147577
0.011553
0.00834092
0.00504706
0.00174427
0.0957085
0.0853652
0.076322
0.0686521
0.0620385
0.0561469
0.0507628
0.0457972
0.0412087
0.0369643
0.0329925
0.0292469
0.0256478
0.022173
0.0187488
0.0153857
0.0120027
0.00864679
0.00521747
0.00181791
0.101788
0.0914671
0.0819757
0.0736115
0.0663195
0.0598626
0.0540188
0.0486568
0.0436971
0.0390996
0.0347987
0.0307541
0.0268875
0.0231753
0.0195405
0.0159915
0.0124436
0.00894475
0.00538698
0.0018784
0.107108
0.0967969
0.0869517
0.0780254
0.0701452
0.0631924
0.0569442
0.0512316
0.045947
0.0410384
0.0364475
0.0321346
0.0280297
0.0241007
0.0202775
0.0165543
0.0128589
0.00921773
0.00554437
0.00191215
0.11171
0.10133
0.091199
0.0818355
0.0734946
0.0661241
0.0595228
0.0535009
0.0479345
0.0427559
0.0379146
0.033365
0.0290521
0.024928
0.0209407
0.0170566
0.0132336
0.00945402
0.00568125
0.00191586
0.115552
0.105014
0.0946641
0.0849999
0.0763187
0.0686133
0.0617146
0.0554278
0.0496243
0.0442186
0.0391687
0.0344176
0.0299295
0.025636
0.0215109
0.0174843
0.0135551
0.00964828
0.00579355
0.0018981
0.118549
0.107817
0.0973029
0.0874435
0.0785302
0.0705776
0.0634479
0.0569509
0.0509612
0.0453775
0.0401654
0.0352547
0.0306291
0.0261991
0.0219657
0.0178226
0.0138106
0.0097974
0.00587891
0.00187192
0.120695
0.109775
0.0991234
0.0891296
0.0800637
0.0719444
0.0646546
0.05801
0.0518909
0.0461839
0.0408606
0.0358389
0.0311181
0.0265918
0.0222832
0.0180577
0.0139882
0.00989906
0.00593565
0.00184833
0.121971
0.110919
0.100146
0.0900518
0.0808916
0.0726767
0.0652967
0.0585706
0.0523809
0.0466085
0.0412261
0.0361464
0.0313745
0.0267985
0.0224492
0.0181819
0.0140803
0.00995396
0.00596394
0.00183849
0.167687
0.126941
0.0926845
0.0647212
0.0428313
0.0262275
0.0141809
0.00509225
-0.000505181
-0.0120276
0.184108
0.144652
0.111121
0.0830321
0.0604134
0.0419736
0.0282612
0.0152817
0.00812344
-0.00618173
0.199346
0.161445
0.129012
0.101065
0.0781001
0.0578452
0.0425994
0.0265893
0.018635
0.00487361
0.213314
0.176819
0.145342
0.117434
0.0942603
0.072787
0.0568501
0.0399603
0.0314287
0.0174573
0.226016
0.190689
0.15999
0.13214
0.108965
0.0870508
0.0709183
0.0538084
0.043829
0.0289928
0.237541
0.203229
0.173242
0.145616
0.122626
0.10067
0.0841864
0.0666271
0.0552144
0.0400475
0.24797
0.214585
0.185292
0.158027
0.135251
0.113315
0.0963642
0.0785018
0.0663953
0.0513344
0.25735
0.22482
0.196181
0.169327
0.146731
0.124877
0.107665
0.0898855
0.07749
0.0625591
0.265698
0.233949
0.205899
0.179476
0.15707
0.135441
0.118192
0.10067
0.0879675
0.0732072
0.273045
0.242005
0.214475
0.188503
0.166319
0.14502
0.127785
0.110521
0.0974692
0.0830298
0.279438
0.249062
0.221983
0.196473
0.174511
0.153568
0.13631
0.119297
0.105965
0.0919147
0.284926
0.255187
0.228515
0.203461
0.181703
0.161096
0.143809
0.12704
0.113531
0.099766
0.289595
0.260431
0.234161
0.209547
0.187993
0.167685
0.150417
0.133831
0.120237
0.106572
0.293534
0.264902
0.239033
0.214827
0.193498
0.173441
0.156252
0.139767
0.126164
0.112472
0.29686
0.268718
0.243237
0.219396
0.198304
0.178458
0.16138
0.144964
0.131383
0.11768
0.29965
0.271955
0.246825
0.223316
0.202443
0.182803
0.165819
0.149518
0.135924
0.122334
0.301924
0.274635
0.249799
0.226605
0.205904
0.186497
0.169553
0.153447
0.139762
0.12639
0.303634
0.276719
0.252122
0.229238
0.208658
0.189513
0.17256
0.156691
0.142851
0.129691
0.304665
0.278092
0.253701
0.231115
0.210641
0.191757
0.174794
0.159149
0.14516
0.132134
0.304956
0.278611
0.254363
0.232004
0.211634
0.192957
0.176022
0.160547
0.146495
0.133552
0.776464
0.777588
0.770931
0.758111
0.740423
0.717488
0.686865
0.645264
0.594331
0.566163
0.724323
0.721362
0.70656
0.687069
0.664055
0.635399
0.597752
0.547632
0.486758
0.45122
0.665811
0.657279
0.63626
0.61162
0.583709
0.54934
0.504773
0.44652
0.376277
0.333834
0.597782
0.585047
0.560489
0.532405
0.500414
0.460892
0.410087
0.3447
0.266127
0.217956
0.525395
0.509282
0.482304
0.451592
0.416143
0.372178
0.316137
0.245194
0.159747
0.107834
0.452839
0.433542
0.404652
0.371826
0.333499
0.285848
0.22551
0.150771
0.0606351
0.00836783
0.382293
0.360105
0.329871
0.295535
0.255031
0.204639
0.141031
0.0628206
-0.0243712
-0.0778274
0.31522
0.29077
0.259913
0.224826
0.182999
0.131109
0.0659934
-0.0124174
-0.0954155
-0.148491
0.253014
0.227217
0.19657
0.161529
0.11935
0.0672372
0.00281471
-0.0732705
-0.150869
-0.201907
0.196514
0.171014
0.141255
0.106728
0.0652117
0.0143851
-0.0475331
-0.118998
-0.189248
-0.237415
1.05983
1.06801
1.07754
1.08846
1.10077
1.11435
1.12874
1.14263
1.15524
1.17276
1.05688
1.06446
1.07353
1.08395
1.09561
1.10839
1.12181
1.13454
1.14579
1.16256
1.05068
1.05703
1.06521
1.07463
1.08502
1.09622
1.1077
1.11807
1.12676
1.14182
1.04065
1.04515
1.05202
1.05997
1.06849
1.07737
1.08598
1.09286
1.09775
1.1102
1.02602
1.02805
1.0332
1.03927
1.04538
1.05123
1.05611
1.05843
1.05829
1.06721
1.00592
1.00483
1.00791
1.01173
1.01493
1.01712
1.01747
1.01425
1.0079
1.01239
0.979468
0.97467
0.975473
0.97679
0.976613
0.974532
0.969617
0.959939
0.946292
0.945462
0.945067
0.936168
0.934883
0.933691
0.929843
0.923027
0.912258
0.895358
0.87342
0.866485
0.902259
0.889596
0.886849
0.88283
0.874704
0.862641
0.845513
0.820761
0.789691
0.776023
0.845548
0.834156
0.831555
0.824307
0.811463
0.79388
0.770046
0.736961
0.696106
0.675287
1.00022
1.00098
1.0023
1.0038
1.00528
1.00679
1.00838
1.0101
1.01198
1.01403
1.01628
1.01875
1.02151
1.02458
1.02802
1.03188
1.03622
1.04111
1.04662
1.05284
1.00022
1.00098
1.00227
1.00372
1.00516
1.00662
1.00818
1.00985
1.01166
1.01365
1.01582
1.01821
1.02087
1.02382
1.02712
1.03082
1.03496
1.03961
1.04481
1.05066
1.00024
1.00097
1.00218
1.00354
1.00489
1.00627
1.00773
1.00929
1.01099
1.01284
1.01485
1.01707
1.01951
1.02222
1.02523
1.02857
1.03228
1.03641
1.04096
1.04602
1.00025
1.00093
1.00201
1.00322
1.00444
1.00568
1.00698
1.00838
1.00989
1.01151
1.01326
1.01518
1.01728
1.01958
1.02211
1.02487
1.02788
1.03115
1.03462
1.03839
1.00025
1.00085
1.00173
1.00274
1.00377
1.0048
1.00587
1.00701
1.00824
1.00954
1.01091
1.01239
1.01398
1.01568
1.01748
1.01938
1.02134
1.02334
1.0252
1.02703
1.00022
1.00069
1.00133
1.00206
1.00282
1.00357
1.00434
1.00516
1.00595
1.00678
1.00764
1.00852
1.00939
1.01025
1.01104
1.01172
1.0122
1.01242
1.01204
1.0111
1.00014
1.00044
1.00076
1.00114
1.00154
1.00193
1.0023
1.00262
1.0029
1.00313
1.00331
1.00338
1.00331
1.00302
1.00245
1.00147
0.999959
0.997749
0.994444
0.989919
1.00001
1.00003
0.999995
0.999957
0.999917
0.99983
0.999659
0.999397
0.999029
0.99852
0.997826
0.996874
0.995597
0.993868
0.991591
0.98852
0.984499
0.979067
0.971818
0.962
0.999781
0.999396
0.998961
0.998478
0.997922
0.997255
0.996454
0.995492
0.994334
0.992906
0.991146
0.988928
0.986172
0.982639
0.978257
0.972529
0.965481
0.955986
0.944201
0.927372
0.999576
0.998638
0.997749
0.996798
0.995642
0.994261
0.992683
0.990872
0.988759
0.986208
0.983138
0.97933
0.974702
0.968793
0.961604
0.952052
0.94062
0.924586
0.906394
0.879165
0.999331
0.997926
0.996689
0.995268
0.993435
0.99124
0.988798
0.986065
0.982922
0.97916
0.974677
0.96917
0.962564
0.954207
0.944157
0.930899
0.915065
0.892426
0.865137
0.81933
0.999073
0.997382
0.995823
0.993822
0.991179
0.988125
0.984868
0.981297
0.977228
0.972382
0.966688
0.959773
0.951629
0.941439
0.92943
0.91379
0.895539
0.870509
0.842321
0.802963
0.999675
0.997926
0.995798
0.992701
0.988831
0.984785
0.980758
0.976412
0.971447
0.965546
0.95871
0.950513
0.941025
0.929301
0.915761
0.898473
0.878913
0.853146
0.825536
0.788221
0.999246
0.99947
0.997467
0.992333
0.986422
0.981161
0.976436
0.971378
0.965514
0.958542
0.950584
0.94117
0.93045
0.917368
0.902552
0.883983
0.863548
0.837208
0.809865
0.773247
0.999587
1.00215
0.999687
0.991617
0.983284
0.976932
0.97174
0.966079
0.959338
0.951316
0.942298
0.931763
0.919937
0.905676
0.889805
0.870227
0.84914
0.822394
0.795272
0.759572
0.999724
1.00394
1.0003
0.989282
0.979096
0.972289
0.966854
0.960543
0.952882
0.943862
0.93388
0.922339
0.909523
0.894244
0.877487
0.857141
0.835565
0.808694
0.781845
0.747301
0.994401
0.993037
0.988974
0.979846
0.972473
0.967396
0.96199
0.95476
0.946075
0.936163
0.925364
0.912954
0.899248
0.883103
0.865584
0.844692
0.822747
0.796015
0.769414
0.736137
0.998953
0.978234
0.959653
0.957616
0.961603
0.962033
0.957096
0.948668
0.938908
0.928273
0.916836
0.903713
0.889215
0.872351
0.854177
0.832938
0.810705
0.784305
0.757881
0.725905
0.992978
0.958045
0.936328
0.942224
0.954564
0.958541
0.953345
0.943464
0.932506
0.921075
0.908938
0.895099
0.879822
0.862329
0.84356
0.822107
0.799621
0.773649
0.747324
0.716587
0.99226
0.953319
0.930267
0.938213
0.952432
0.95646
0.950119
0.938989
0.927033
0.914797
0.90186
0.887275
0.871249
0.853225
0.833943
0.812366
0.789668
0.764138
0.737879
0.70822
0.996654
0.969367
0.951791
0.954364
0.959563
0.957177
0.947911
0.935697
0.922996
0.909885
0.895965
0.880531
0.863772
0.845277
0.825569
0.803897
0.781041
0.755869
0.729696
0.700867
0.989444
0.991801
0.998019
0.991509
0.977561
0.962307
0.948
0.934428
0.920946
0.906757
0.891633
0.875202
0.857698
0.838735
0.818668
0.796857
0.773895
0.748912
0.722883
0.69456
1.00111
1.02201
1.03271
1.01664
0.989611
0.965575
0.947668
0.933173
0.919195
0.90417
0.888052
0.870768
0.852682
0.833331
0.813037
0.791066
0.768096
0.743134
0.717349
0.689192
1.00781
1.0374
1.04881
1.02809
0.994957
0.96654
0.946847
0.931925
0.917657
0.902004
0.885119
0.86714
0.848611
0.828929
0.808492
0.786339
0.763423
0.738375
0.712903
0.684708
1.01026
1.04566
1.05818
1.03313
0.995317
0.964565
0.944594
0.930024
0.915833
0.899817
0.882416
0.863938
0.845083
0.825133
0.804579
0.782281
0.759426
0.734347
0.709166
0.681062
1.00695
1.05031
1.0715
1.04192
0.995722
0.960611
0.939996
0.926234
0.912628
0.896688
0.879229
0.860636
0.841636
0.821535
0.800866
0.778537
0.755711
0.730796
0.705806
0.678139
0.974418
0.984855
1.01545
1.01398
0.991275
0.964753
0.942754
0.925198
0.909365
0.893096
0.875921
0.857629
0.838632
0.818443
0.797599
0.775309
0.752451
0.727845
0.702923
0.675865
1.00229
0.938384
0.884243
0.898305
0.932626
0.948047
0.940723
0.922771
0.904326
0.887714
0.871642
0.854397
0.835787
0.815715
0.794783
0.772622
0.74976
0.725505
0.700632
0.674096
1.00784
0.940346
0.872409
0.879394
0.91725
0.938162
0.934955
0.919694
0.902354
0.885799
0.86954
0.852307
0.833764
0.813833
0.792892
0.770844
0.747967
0.72396
0.69913
0.672964
0.97006
0.986469
1.02466
1.01181
0.973866
0.944598
0.92865
0.916905
0.90338
0.887331
0.869879
0.851691
0.832818
0.812946
0.792034
0.770034
0.747107
0.723214
0.698403
0.672493
0.7706
0.714537
0.657158
0.593734
0.52563
0.457364
0.39124
0.328092
0.269012
0.215063
0.764699
0.706224
0.6458
0.585236
0.521142
0.456297
0.393863
0.334598
0.279366
0.229082
0.753088
0.69675
0.635279
0.577025
0.517527
0.456515
0.397405
0.341575
0.289753
0.242189
0.740818
0.688187
0.627083
0.569823
0.513993
0.456836
0.40087
0.348013
0.299135
0.254065
0.72898
0.679709
0.619978
0.563432
0.510473
0.457131
0.404365
0.354155
0.307803
0.264911
0.717766
0.671361
0.613724
0.558149
0.507399
0.45749
0.407881
0.360103
0.315894
0.274843
0.707131
0.663167
0.60806
0.553885
0.50494
0.457941
0.411306
0.36581
0.323434
0.283915
0.69704
0.655189
0.602912
0.550589
0.503248
0.4586
0.414586
0.371194
0.330407
0.292162
0.687578
0.647552
0.59827
0.548168
0.502338
0.459507
0.417644
0.376124
0.336736
0.299574
0.678924
0.64046
0.594152
0.546475
0.502097
0.460618
0.420402
0.380476
0.342328
0.306136
0.671356
0.634224
0.59062
0.545318
0.5023
0.461814
0.422788
0.384166
0.347093
0.31178
0.665114
0.629135
0.587731
0.54447
0.502652
0.462919
0.42475
0.387184
0.351045
0.3165
0.660177
0.625232
0.585426
0.543695
0.502867
0.46376
0.42626
0.389577
0.354321
0.320596
0.656366
0.622307
0.583547
0.542832
0.502773
0.464238
0.427336
0.391424
0.35698
0.323998
0.653317
0.619896
0.581815
0.541787
0.502346
0.464367
0.428041
0.392825
0.359107
0.326805
0.650615
0.617535
0.580017
0.540613
0.501745
0.464297
0.428503
0.393899
0.360809
0.329116
0.648121
0.615146
0.578204
0.539483
0.501175
0.464187
0.428824
0.394722
0.362147
0.330977
0.645954
0.612943
0.576506
0.538425
0.500602
0.463969
0.428919
0.395215
0.36306
0.332343
0.644532
0.611404
0.575234
0.537527
0.499964
0.463507
0.428633
0.395219
0.363399
0.33308
0.643973
0.6108
0.574715
0.537084
0.499507
0.463009
0.428132
0.394831
0.36318
0.333117
)
;

boundaryField
{
    bottom
    {
        type            symmetryPlane;
    }
    right
    {
        type            fixedValue;
        value           uniform 0;
    }
    top
    {
        type            symmetryPlane;
    }
    left
    {
        type            fixedValue;
        value           uniform 1;
    }
    cylinder
    {
        type            zeroGradient;
    }
    defaultFaces
    {
        type            empty;
    }
}


// ************************************************************************* //
