/*--------------------------------*- C++ -*----------------------------------*\
| =========                 |                                                 |
| \\      /  F ield         | OpenFOAM: The Open Source CFD Toolbox           |
|  \\    /   O peration     | Version:  4.1                                   |
|   \\  /    A nd           | Web:      www.OpenFOAM.org                      |
|    \\/     M anipulation  |                                                 |
\*---------------------------------------------------------------------------*/
FoamFile
{
    version     2.0;
    format      ascii;
    class       volVectorField;
    location    "0.9";
    object      U;
}
// * * * * * * * * * * * * * * * * * * * * * * * * * * * * * * * * * * * * * //

dimensions      [0 1 -1 0 0 0 0];

internalField   nonuniform List<vector> 
2000
(
(0.065552 -0.056021 -3.41652e-20)
(0.142306 -0.111004 0)
(0.185976 -0.129812 -6.02136e-20)
(0.20785 -0.130252 -2.86039e-20)
(0.217516 -0.122186 5.2791e-20)
(0.22106 -0.111164 7.37594e-20)
(0.221839 -0.0999884 -2.24254e-20)
(0.22147 -0.0898311 0)
(0.220335 -0.081437 2.06237e-20)
(0.219141 -0.0749892 0)
(0.0752251 -0.0552353 1.65998e-20)
(0.16099 -0.108677 -1.68669e-20)
(0.207381 -0.126586 6.18499e-20)
(0.228915 -0.1267 8.73221e-20)
(0.236937 -0.11866 1.29658e-21)
(0.238443 -0.107825 -2.43323e-20)
(0.237219 -0.096842 2.53684e-20)
(0.235081 -0.0868286 2.32276e-20)
(0.232477 -0.0786769 -2.06239e-20)
(0.230074 -0.0724294 -3.99091e-20)
(0.0848108 -0.053053 -1.83641e-20)
(0.179238 -0.103573 1.72021e-20)
(0.228099 -0.120118 -3.17548e-20)
(0.249183 -0.119898 1.44411e-21)
(0.255579 -0.112082 -2.80144e-20)
(0.255159 -0.101713 -2.63146e-20)
(0.252108 -0.0912457 -2.47199e-20)
(0.248403 -0.0817217 -2.32278e-20)
(0.244576 -0.0740211 -2.31127e-20)
(0.241143 -0.0680585 2.18259e-20)
(0.0940919 -0.0494902 -1.23159e-22)
(0.196618 -0.0957868 1.8019e-20)
(0.247628 -0.110567 0)
(0.268155 -0.110044 -3.05681e-20)
(0.272959 -0.102672 3.0042e-20)
(0.270724 -0.093056 0)
(0.265977 -0.0834028 0)
(0.260805 -0.0746501 0)
(0.255809 -0.0676106 2.31128e-20)
(0.251446 -0.0620684 -4.36607e-20)
(0.10285 -0.044596 -4.07466e-20)
(0.212709 -0.0854792 -5.94221e-22)
(0.265491 -0.0981658 -1.83019e-20)
(0.285361 -0.0974038 -1.55778e-20)
(0.288638 -0.0907045 -1.6267e-20)
(0.284729 -0.0821135 -1.53541e-20)
(0.278446 -0.0735434 0)
(0.271951 -0.065801 -1.37066e-20)
(0.265899 -0.0595972 6.32406e-20)
(0.260674 -0.0546115 -8.32533e-20)
(0.110869 -0.0384525 6.2836e-20)
(0.227114 -0.0728736 -3.56993e-22)
(0.281247 -0.0832163 3.71673e-20)
(0.300377 -0.0823064 -3.48077e-20)
(0.302224 -0.0765013 4.9727e-20)
(0.29682 -0.0691858 -1.60601e-20)
(0.289196 -0.0619353 0)
(0.281562 -0.0554095 1.37067e-20)
(0.274611 -0.0501967 -1.29632e-20)
(0.26864 -0.0459158 -5.14225e-20)
(0.117942 -0.0311752 0)
(0.239466 -0.0582532 0)
(0.294505 -0.0660834 1.98311e-20)
(0.312833 -0.0651363 -1.84632e-20)
(0.313386 -0.0604336 1.76139e-20)
(0.306701 -0.0546127 -1.6537e-20)
(0.297961 -0.0488816 -3.14427e-20)
(0.2894 -0.0437431 2.972e-20)
(0.281729 -0.0396497 2.8208e-20)
(0.27515 -0.0362097 -1.37852e-20)
(0.123879 -0.0229125 -1.19586e-20)
(0.249445 -0.0419564 0)
(0.304935 -0.047187 1.02274e-20)
(0.322428 -0.0463253 -3.90516e-20)
(0.321858 -0.0429119 2.78385e-20)
(0.314135 -0.0387681 0)
(0.304533 -0.0347159 0)
(0.295276 -0.0310973 0)
(0.287077 -0.0282207 2.98316e-20)
(0.280046 -0.0257362 -2.83529e-20)
(0.128511 -0.0138435 5.79942e-21)
(0.256786 -0.02437 -1.74433e-22)
(0.312279 -0.0269926 1.06206e-20)
(0.328933 -0.0263427 -5.26338e-21)
(0.327443 -0.024376 -4.69875e-21)
(0.318953 -0.0220499 -9.15259e-21)
(0.308761 -0.0197921 0)
(0.299054 -0.0177849 4.2454e-21)
(0.290529 -0.016189 1.97905e-20)
(0.283212 -0.0147469 -1.497e-20)
(0.131698 -0.00417462 0)
(0.26129 -0.00592038 5.94397e-21)
(0.316357 -0.00599954 0)
(0.332195 -0.00568243 2.55219e-21)
(0.330018 -0.00528387 2.39043e-21)
(0.321053 -0.00486888 4.80858e-21)
(0.310555 -0.00447475 0)
(0.300652 -0.00412849 -4.24544e-21)
(0.292004 -0.00384354 -4.03891e-21)
(0.284581 -0.00349764 -3.95822e-21)
(0.0041034 -0.00410686 0)
(0.0181614 -0.00844681 3.18663e-21)
(0.0391701 -0.0100735 0)
(0.0596687 -0.010227 4.07525e-21)
(0.0778918 -0.00964613 1.24984e-21)
(0.0935328 -0.00877055 -2.27391e-21)
(0.106709 -0.00783946 2.14142e-21)
(0.117734 -0.00696275 -1.94589e-21)
(0.126965 -0.00617436 -3.89516e-23)
(0.134715 -0.00545731 -1.65762e-21)
(0.00539946 -0.0122462 1.00524e-20)
(0.0208818 -0.0251459 -6.30799e-21)
(0.0424703 -0.0299867 5.90787e-21)
(0.063048 -0.0304368 -2.71051e-21)
(0.0811124 -0.0287009 -1.2502e-20)
(0.0964979 -0.0260908 4.65977e-21)
(0.109395 -0.0233173 0)
(0.120156 -0.020706 1.9394e-21)
(0.129168 -0.0183565 1.77831e-21)
(0.136709 -0.0162231 0)
(0.00798822 -0.0201427 -6.69465e-21)
(0.0262783 -0.0412788 0)
(0.0489909 -0.0491978 -1.77414e-20)
(0.0697305 -0.0499098 2.19274e-20)
(0.0874804 -0.0470419 -5.16298e-21)
(0.102359 -0.0427484 0)
(0.114707 -0.0381917 0)
(0.124948 -0.0339025 0)
(0.133525 -0.0300383 -1.42469e-20)
(0.14066 -0.0265387 1.3541e-20)
(0.0118267 -0.0276235 0)
(0.0342481 -0.0564906 1.29806e-20)
(0.0585949 -0.0672506 -2.40323e-20)
(0.0795636 -0.0681673 1.11789e-20)
(0.0968454 -0.06421 -1.02129e-20)
(0.110979 -0.0583195 2.83856e-20)
(0.122522 -0.0520774 -4.28699e-22)
(0.132002 -0.046202 -1.63349e-20)
(0.139942 -0.0408954 -1.45771e-20)
(0.146494 -0.0361009 2.07715e-20)
(0.0168514 -0.0345316 -1.38252e-20)
(0.044635 -0.0704326 2.64347e-20)
(0.0710749 -0.0837154 1.66243e-22)
(0.0923183 -0.084765 -1.16349e-22)
(0.108982 -0.0797824 -1.02204e-20)
(0.122149 -0.0724184 2.94702e-20)
(0.132659 -0.0646273 0)
(0.141164 -0.0572897 8.41078e-21)
(0.148286 -0.050634 -7.76101e-21)
(0.154113 -0.0446274 2.78004e-20)
(0.0229786 -0.0407152 2.61135e-22)
(0.0572298 -0.0827741 -2.6723e-20)
(0.086151 -0.0981922 -1.24058e-20)
(0.107687 -0.0992967 -1.21292e-20)
(0.123586 -0.093381 -1.06638e-20)
(0.13559 -0.0847085 -9.86293e-21)
(0.144872 -0.0755459 0)
(0.152227 -0.0669008 -8.4108e-21)
(0.158377 -0.0589993 -2.3363e-20)
(0.163358 -0.0518477 7.54655e-21)
(0.0301019 -0.046028 1.10613e-22)
(0.071769 -0.0932098 -1.37312e-20)
(0.103471 -0.11032 0)
(0.125285 -0.111406 2.31674e-20)
(0.140274 -0.104685 -2.23504e-20)
(0.150943 -0.0949206 0)
(0.158842 -0.0846164 0)
(0.164921 -0.0748562 0)
(0.169993 -0.0658156 1.68017e-20)
(0.174062 -0.0575397 2.91876e-20)
(0.0380896 -0.0503323 1.5099e-20)
(0.087934 -0.101465 -1.41435e-20)
(0.122613 -0.119785 -2.70435e-20)
(0.144646 -0.120791 -8.49794e-22)
(0.158579 -0.113439 -2.35058e-20)
(0.167758 -0.102866 -2.18807e-20)
(0.174157 -0.0917339 -2.03505e-20)
(0.178882 -0.0811325 -1.89188e-20)
(0.182799 -0.0710925 -1.68018e-20)
(0.185852 -0.0616253 1.55747e-20)
(0.0467839 -0.0535016 4.71717e-20)
(0.105354 -0.107302 1.49555e-20)
(0.143092 -0.126321 5.52192e-20)
(0.165235 -0.127199 2.57732e-20)
(0.177945 -0.119427 -9.54407e-22)
(0.185476 -0.108402 2.1252e-20)
(0.190273 -0.0968778 -2.18371e-20)
(0.193634 -0.0858896 1.89189e-20)
(0.196472 -0.0752154 -1.84857e-20)
(0.198655 -0.0646244 3.29187e-20)
(0.0560035 -0.055426 -3.15636e-20)
(0.123619 -0.110527 0)
(0.164384 -0.129711 -2.80318e-20)
(0.186477 -0.130409 5.10074e-22)
(0.197755 -0.122422 -5.10655e-22)
(0.203405 -0.111298 -2.36074e-20)
(0.206355 -0.0998487 6.50231e-20)
(0.208122 -0.0890901 0)
(0.209646 -0.0787291 1.84858e-20)
(0.211207 -0.0680785 0)
(0.141238 -0.00478299 0)
(0.147276 -0.00417089 1.43049e-21)
(0.152603 -0.00361384 -2.80325e-21)
(0.15723 -0.00312693 1.20481e-21)
(0.161262 -0.00270748 0)
(0.164787 -0.00234641 -1.15772e-21)
(0.16787 -0.00203555 1.16346e-21)
(0.170565 -0.00176747 0)
(0.172919 -0.00153519 0)
(0.174974 -0.00133261 -1.12378e-22)
(0.176761 -0.00115454 0)
(0.178307 -0.000996563 0)
(0.179631 -0.000854881 0)
(0.180741 -0.000725356 0)
(0.181665 -0.000601595 1.10392e-22)
(0.182449 -0.000489662 -1.10964e-22)
(0.183108 -0.000388595 0)
(0.183642 -0.000296831 2.25026e-23)
(0.184069 -0.000216408 -2.2621e-23)
(0.184416 -0.000158217 0)
(0.142733 -0.0142512 0)
(0.148558 -0.0124226 -3.71887e-22)
(0.153712 -0.010759 0)
(0.15817 -0.00930862 -5.05579e-21)
(0.162062 -0.00805799 4.92586e-21)
(0.165475 -0.00697964 -3.02932e-22)
(0.168468 -0.0060502 2.17765e-21)
(0.171089 -0.00524783 -4.4789e-21)
(0.173384 -0.00455196 3.65991e-21)
(0.17539 -0.00394457 -1.99384e-21)
(0.177137 -0.00341045 -1.55194e-21)
(0.178653 -0.00293673 2.76209e-21)
(0.179954 -0.00251235 -1.39504e-21)
(0.181053 -0.00212539 -6.70847e-22)
(0.181965 -0.00176081 5.29633e-22)
(0.182727 -0.0014329 -1.00685e-22)
(0.183367 -0.00113711 -7.87732e-23)
(0.183887 -0.000868875 -8.99608e-23)
(0.184302 -0.000633585 9.03965e-23)
(0.184638 -0.000462444 -1.16251e-23)
(0.145714 -0.023419 3.96274e-22)
(0.151117 -0.0203998 3.72531e-22)
(0.155917 -0.0176616 3.62978e-22)
(0.160039 -0.0152898 0)
(0.163653 -0.0132438 5.66554e-21)
(0.166846 -0.0114778 -4.42595e-21)
(0.169659 -0.00995585 0)
(0.172134 -0.0086422 5.34646e-22)
(0.17431 -0.00750282 2.45307e-22)
(0.176219 -0.00650819 -3.00883e-21)
(0.177888 -0.00563333 3.41514e-22)
(0.179339 -0.00485702 3.5215e-21)
(0.180592 -0.00416043 1.66903e-22)
(0.181662 -0.00352389 1.42807e-22)
(0.18254 -0.00292884 1.23652e-22)
(0.183257 -0.00238523 -2.57927e-22)
(0.183862 -0.00189276 2.4715e-22)
(0.184355 -0.00144499 2.70828e-22)
(0.184746 -0.00105036 5.71615e-23)
(0.18506 -0.000760558 1.3808e-25)
(0.150157 -0.0320666 1.2191e-20)
(0.154929 -0.0278986 -5.94001e-22)
(0.159169 -0.0241413 -9.76376e-22)
(0.162777 -0.0209081 -1.14953e-20)
(0.165978 -0.0181114 -9.98603e-22)
(0.168841 -0.0156915 -3.08116e-22)
(0.171387 -0.0136044 8.41689e-21)
(0.173645 -0.0118018 -5.12234e-21)
(0.175645 -0.0102375 -4.1946e-21)
(0.177412 -0.00887185 3.76245e-21)
(0.178967 -0.0076716 -3.47144e-22)
(0.180329 -0.00660851 -3.76463e-21)
(0.181516 -0.00565823 -1.65513e-22)
(0.182545 -0.00479964 -1.371e-21)
(0.183388 -0.00401374 9.56555e-22)
(0.184056 -0.00325521 7.22816e-22)
(0.18461 -0.00257148 -6.42686e-22)
(0.185065 -0.00195826 0)
(0.185424 -0.00141968 -1.03377e-22)
(0.185705 -0.00102265 -1.14979e-23)
(0.156033 -0.0399892 -2.72298e-20)
(0.159974 -0.0347547 1.1646e-20)
(0.16344 -0.0300886 -1.24799e-20)
(0.166364 -0.0260987 0)
(0.169027 -0.0226342 6.71464e-22)
(0.171458 -0.0196319 9.91061e-21)
(0.173651 -0.0170414 -9.09779e-23)
(0.175622 -0.0148016 -6.89965e-22)
(0.177388 -0.0128551 -8.58285e-21)
(0.178964 -0.0111539 -4.65265e-22)
(0.180363 -0.00965738 0)
(0.181595 -0.00833129 3.79203e-22)
(0.182673 -0.00714666 0)
(0.183611 -0.00607935 2.91662e-22)
(0.184435 -0.0051036 0)
(0.18508 -0.00417247 0)
(0.185549 -0.00329369 -1.58146e-22)
(0.185937 -0.00250037 1.83599e-22)
(0.18625 -0.0018012 -1.61792e-22)
(0.186491 -0.00128 4.64991e-23)
(0.163236 -0.0469504 0)
(0.166131 -0.0407481 8.18037e-22)
(0.168592 -0.0352991 2.46384e-20)
(0.170665 -0.0306419 -2.38726e-20)
(0.172664 -0.0265665 7.20616e-22)
(0.174564 -0.0230246 0)
(0.176328 -0.0199642 9.54475e-21)
(0.177955 -0.0173147 -1.77898e-20)
(0.179445 -0.0150115 9.37048e-21)
(0.180797 -0.0129994 4.9376e-22)
(0.182015 -0.0112312 4.47397e-22)
(0.183102 -0.00966644 4.00805e-22)
(0.184065 -0.00827037 0)
(0.184915 -0.00701283 -1.92069e-21)
(0.18567 -0.00586917 4.34547e-21)
(0.186298 -0.00482606 -1.85772e-21)
(0.186747 -0.00380781 1.65485e-22)
(0.187069 -0.0028753 1.18201e-22)
(0.187327 -0.00206536 -4.65345e-23)
(0.187518 -0.00146139 4.68916e-23)
(0.171694 -0.0527488 -2.99389e-20)
(0.173353 -0.0457919 0)
(0.17463 -0.0398161 8.4819e-22)
(0.175732 -0.0346986 -1.56747e-21)
(0.176966 -0.0301874 -1.47413e-21)
(0.178237 -0.0262526 -7.04787e-22)
(0.179487 -0.0228352 -6.56355e-22)
(0.180695 -0.0198593 8.54392e-21)
(0.181843 -0.0172586 -1.02022e-20)
(0.182918 -0.014976 -8.59813e-21)
(0.183909 -0.0129622 7.14039e-21)
(0.184811 -0.011175 -8.07851e-22)
(0.185623 -0.0095778 2.65172e-21)
(0.186345 -0.00813961 -6.78171e-22)
(0.18699 -0.00683645 -2.7858e-21)
(0.18757 -0.00565337 -2.17165e-22)
(0.187992 -0.0045464 2.33735e-22)
(0.188233 -0.00344502 -3.02824e-22)
(0.188411 -0.00243659 -4.46307e-22)
(0.188552 -0.00168033 -2.40909e-23)
(0.18103 -0.0570817 0)
(0.181186 -0.0495232 2.88246e-20)
(0.181131 -0.0431047 -2.95498e-20)
(0.181189 -0.0375152 8.03937e-22)
(0.181601 -0.0325514 1.54318e-21)
(0.182212 -0.0282209 7.04181e-22)
(0.182931 -0.0244628 1.33813e-21)
(0.18371 -0.0211968 0)
(0.184508 -0.0183511 5.54596e-22)
(0.185296 -0.0158621 5.04966e-22)
(0.186053 -0.0136745 4.75598e-22)
(0.186764 -0.011741 8.30401e-22)
(0.18742 -0.0100212 0)
(0.188014 -0.00848015 0)
(0.188544 -0.00708889 2.60162e-22)
(0.189022 -0.00583043 1.97758e-21)
(0.189472 -0.00469415 -1.37331e-21)
(0.189799 -0.00360594 1.21872e-22)
(0.189936 -0.00256997 2.37622e-22)
(0.189984 -0.00175786 -7.20496e-23)
(0.191357 -0.0600096 -3.43212e-20)
(0.189785 -0.0527082 0)
(0.188463 -0.0466014 0)
(0.187477 -0.0410731 2.68726e-20)
(0.18696 -0.0360227 -2.41625e-21)
(0.186776 -0.0315077 -4.81279e-20)
(0.186839 -0.0275065 2.24057e-20)
(0.18708 -0.0239737 0)
(0.18744 -0.0208571 0)
(0.187871 -0.018103 0)
(0.188338 -0.0156607 -2.22327e-22)
(0.188814 -0.0134844 -6.37005e-22)
(0.189277 -0.0115332 -5.57599e-21)
(0.189715 -0.00977122 5.37184e-21)
(0.190116 -0.0081666 -1.96587e-21)
(0.190473 -0.00669325 1.73694e-21)
(0.190784 -0.00533911 0)
(0.19105 -0.0041155 -5.59913e-23)
(0.191222 -0.00297397 -7.03574e-23)
(0.191235 -0.00202515 0)
(0.201834 -0.0605032 5.4114e-22)
(0.197482 -0.0523772 3.28099e-20)
(0.195108 -0.0456058 -3.24682e-20)
(0.19349 -0.0396757 0)
(0.192351 -0.0344395 -2.6692e-20)
(0.191585 -0.0298407 5.11236e-20)
(0.191125 -0.0258132 -2.44538e-20)
(0.190908 -0.0222915 0)
(0.190877 -0.0192124 -9.45882e-21)
(0.190979 -0.0165173 1.78909e-20)
(0.191173 -0.0141535 -8.68529e-21)
(0.191425 -0.0120741 2.15842e-22)
(0.191707 -0.0102376 0)
(0.192 -0.0086069 5.10235e-21)
(0.192288 -0.00714912 -6.93391e-21)
(0.19256 -0.00583517 2.02131e-21)
(0.192808 -0.00464017 1.20311e-21)
(0.193021 -0.00355322 -8.54462e-22)
(0.193192 -0.00259394 -3.94006e-22)
(0.193337 -0.00184896 0)
(0.216226 -0.0629562 0)
(0.207901 -0.0595578 0)
(0.202965 -0.0542517 0)
(0.199887 -0.0484722 0)
(0.197733 -0.0428928 0)
(0.1962 -0.0377846 0)
(0.195138 -0.0332003 0)
(0.194429 -0.029109 0)
(0.193982 -0.025457 0)
(0.193731 -0.0221892 0)
(0.193622 -0.0192556 0)
(0.193615 -0.0166117 0)
(0.193675 -0.0142179 0)
(0.193779 -0.0120389 0)
(0.193907 -0.010043 0)
(0.194044 -0.00820204 0)
(0.194178 -0.00649241 0)
(0.194297 -0.00489907 0)
(0.194395 -0.00343579 0)
(0.194481 -0.00224879 0)
(0.221274 -0.0527953 0)
(0.214432 -0.0503165 0)
(0.209046 -0.0466148 0)
(0.205193 -0.0423551 0)
(0.202349 -0.0380031 0)
(0.200246 -0.0338425 0)
(0.198713 -0.0299965 0)
(0.197606 -0.0264922 0)
(0.196817 -0.0233148 0)
(0.196267 -0.0204357 0)
(0.195896 -0.0178237 0)
(0.195659 -0.0154484 0)
(0.195521 -0.0132813 0)
(0.195453 -0.0112954 0)
(0.195435 -0.00946558 0)
(0.195448 -0.00776852 0)
(0.19548 -0.00618394 0)
(0.195519 -0.00469893 0)
(0.195556 -0.00332887 0)
(0.195591 -0.00222233 0)
(0.224061 -0.046369 0)
(0.218209 -0.0446844 0)
(0.213222 -0.0420451 0)
(0.209331 -0.0387859 0)
(0.206259 -0.0352768 0)
(0.20386 -0.0317808 0)
(0.202021 -0.0284439 0)
(0.200621 -0.0253278 0)
(0.199559 -0.0224473 0)
(0.19876 -0.019796 0)
(0.198165 -0.0173589 0)
(0.197727 -0.0151175 0)
(0.197412 -0.0130518 0)
(0.197189 -0.0111418 0)
(0.197037 -0.00936784 0)
(0.196938 -0.00771085 0)
(0.196876 -0.00615379 0)
(0.196841 -0.00468641 0)
(0.196824 -0.00332682 0)
(0.196815 -0.00222512 0)
(0.22587 -0.0413127 0)
(0.220705 -0.0400789 0)
(0.216234 -0.0380584 0)
(0.212559 -0.035488 0)
(0.209498 -0.0326384 0)
(0.206995 -0.0297131 0)
(0.204992 -0.0268428 0)
(0.203401 -0.0240978 0)
(0.202142 -0.0215095 0)
(0.201151 -0.0190872 0)
(0.200375 -0.0168289 0)
(0.199771 -0.0147263 0)
(0.199304 -0.0127679 0)
(0.198948 -0.0109399 0)
(0.198678 -0.00922788 0)
(0.198479 -0.00761687 0)
(0.198334 -0.00609316 0)
(0.198233 -0.00464913 0)
(0.198165 -0.00330506 0)
(0.198118 -0.00221166 0)
(0.227219 -0.0367342 0)
(0.222568 -0.0358035 0)
(0.218534 -0.0342208 0)
(0.21511 -0.0321751 0)
(0.212153 -0.0298603 0)
(0.209652 -0.0274274 0)
(0.207581 -0.0249838 0)
(0.20588 -0.0225968 0)
(0.204491 -0.0203037 0)
(0.203361 -0.018123 0)
(0.202447 -0.0160618 0)
(0.201711 -0.0141195 0)
(0.201121 -0.0122913 0)
(0.200653 -0.0105691 0)
(0.200285 -0.00894297 0)
(0.199999 -0.00740181 0)
(0.199783 -0.00593512 0)
(0.199624 -0.00453787 0)
(0.199513 -0.00323193 0)
(0.199432 -0.00216609 0)
(0.228217 -0.0325753 0)
(0.223997 -0.0319057 0)
(0.220332 -0.0306762 0)
(0.217149 -0.0290465 0)
(0.214333 -0.0271626 0)
(0.211889 -0.0251402 0)
(0.20981 -0.0230668 0)
(0.208058 -0.0210026 0)
(0.20659 -0.0189858 0)
(0.205366 -0.0170389 0)
(0.204352 -0.0151743 0)
(0.203514 -0.013397 0)
(0.202828 -0.0117069 0)
(0.202269 -0.0101005 0)
(0.201819 -0.00857163 0)
(0.201462 -0.0071127 0)
(0.201185 -0.00571606 0)
(0.200978 -0.00437902 0)
(0.20083 -0.00312448 0)
(0.200719 -0.00209725 0)
(0.228921 -0.0288141 0)
(0.225088 -0.0283616 0)
(0.221747 -0.0274184 0)
(0.218792 -0.0261222 0)
(0.216126 -0.0245882 0)
(0.213768 -0.0229073 0)
(0.21172 -0.0211516 0)
(0.209956 -0.0193736 0)
(0.208448 -0.0176092 0)
(0.207165 -0.0158822 0)
(0.206081 -0.0142076 0)
(0.20517 -0.0125938 0)
(0.20441 -0.0110443 0)
(0.20378 -0.00955886 0)
(0.203265 -0.0081344 0)
(0.202849 -0.00676613 0)
(0.202522 -0.00544892 0)
(0.202273 -0.00418208 0)
(0.202094 -0.00298903 0)
(0.201958 -0.002009 0)
(0.229388 -0.025408 0)
(0.225909 -0.0251265 0)
(0.222859 -0.0244128 0)
(0.220115 -0.023386 0)
(0.217602 -0.0221384 0)
(0.215344 -0.0207434 0)
(0.213348 -0.0192604 0)
(0.2116 -0.0177346 0)
(0.21008 -0.0161987 0)
(0.208766 -0.0146759 0)
(0.207638 -0.0131823 0)
(0.206675 -0.0117282 0)
(0.205861 -0.0103191 0)
(0.205177 -0.00895726 0)
(0.20461 -0.00764201 0)
(0.204148 -0.0063708 0)
(0.20378 -0.00514057 0)
(0.203498 -0.00395223 0)
(0.203293 -0.00282921 0)
(0.203135 -0.00190388 0)
(0.22967 -0.0223212 0)
(0.226515 -0.0221689 0)
(0.223728 -0.0216374 0)
(0.221178 -0.0208284 0)
(0.218814 -0.0198165 0)
(0.216662 -0.0186613 0)
(0.214733 -0.0174122 0)
(0.213019 -0.0161078 0)
(0.211506 -0.0147774 0)
(0.210181 -0.0134426 0)
(0.209028 -0.0121194 0)
(0.208033 -0.0108187 0)
(0.20718 -0.00954768 0)
(0.206457 -0.0083099 0)
(0.205851 -0.00710647 0)
(0.205352 -0.0059366 0)
(0.204952 -0.00479887 0)
(0.204643 -0.00369542 0)
(0.204416 -0.00264925 0)
(0.204241 -0.0017847 0)
(0.229815 -0.0195196 0)
(0.226953 -0.0194617 0)
(0.2244 -0.0190731 0)
(0.222029 -0.0184397 0)
(0.219807 -0.0176218 0)
(0.217762 -0.016668 0)
(0.215906 -0.0156195 0)
(0.214236 -0.0145093 0)
(0.212745 -0.0133628 0)
(0.211424 -0.0121999 0)
(0.210262 -0.0110357 0)
(0.209247 -0.00988131 0)
(0.208369 -0.00874427 0)
(0.207618 -0.00762923 0)
(0.206984 -0.00653847 0)
(0.206458 -0.00547244 0)
(0.206033 -0.00443098 0)
(0.205702 -0.00341714 0)
(0.205458 -0.00245301 0)
(0.205269 -0.0016541 0)
(0.22986 -0.0169699 0)
(0.227261 -0.0169781 0)
(0.224915 -0.0166999 0)
(0.222707 -0.0162076 0)
(0.220617 -0.0155493 0)
(0.218676 -0.0147648 0)
(0.216895 -0.0138886 0)
(0.215276 -0.0129484 0)
(0.213816 -0.0119664 0)
(0.212508 -0.0109602 0)
(0.211347 -0.00994384 0)
(0.210324 -0.00892788 0)
(0.209432 -0.00791999 0)
(0.208663 -0.00692528 0)
(0.208008 -0.00594674 0)
(0.207462 -0.00498572 0)
(0.207018 -0.00404295 0)
(0.206671 -0.00312204 0)
(0.206414 -0.00224388 0)
(0.206213 -0.00151436 0)
(0.229837 -0.0146398 0)
(0.22747 -0.0146917 0)
(0.225307 -0.0144979 0)
(0.223243 -0.0141183 0)
(0.221275 -0.0135914 0)
(0.219432 -0.0129495 0)
(0.217725 -0.0122214 0)
(0.216159 -0.0114304 0)
(0.214734 -0.0105955 0)
(0.213446 -0.00973213 0)
(0.212294 -0.00885286 0)
(0.211271 -0.00796753 0)
(0.210372 -0.00708352 0)
(0.209592 -0.00620603 0)
(0.208924 -0.00533841 0)
(0.208364 -0.00448256 0)
(0.207906 -0.00363984 0)
(0.207547 -0.00281411 0)
(0.20728 -0.00202474 0)
(0.20707 -0.00136747 0)
(0.22977 -0.0124992 0)
(0.227606 -0.0125776 0)
(0.225601 -0.0124471 0)
(0.223666 -0.0121573 0)
(0.221807 -0.0117385 0)
(0.220053 -0.0112172 0)
(0.218417 -0.0106169 0)
(0.216903 -0.00995723 0)
(0.215514 -0.00925416 0)
(0.214251 -0.00852108 0)
(0.213111 -0.00776903 0)
(0.212094 -0.00700685 0)
(0.211194 -0.00624139 0)
(0.210408 -0.00547767 0)
(0.209732 -0.00471912 0)
(0.209162 -0.00396794 0)
(0.208695 -0.00322581 0)
(0.208327 -0.00249664 0)
(0.208052 -0.00179804 0)
(0.207837 -0.00121513 0)
(0.229678 -0.0105202 0)
(0.227689 -0.0106118 0)
(0.225819 -0.0105282 0)
(0.223995 -0.0103096 0)
(0.222233 -0.00998013 0)
(0.220559 -0.00956096 0)
(0.218987 -0.00907154 0)
(0.217523 -0.00852799 0)
(0.21617 -0.00794367 0)
(0.214932 -0.00732991 0)
(0.213808 -0.00669619 0)
(0.212799 -0.00605026 0)
(0.211901 -0.00539826 0)
(0.211114 -0.0047448 0)
(0.210434 -0.00409319 0)
(0.209858 -0.0034457 0)
(0.209384 -0.00280416 0)
(0.20901 -0.0021723 0)
(0.208731 -0.00156575 0)
(0.20851 -0.00105872 0)
(0.229576 -0.00867684 0)
(0.227734 -0.008772 0)
(0.225978 -0.00872227 0)
(0.224249 -0.00856017 0)
(0.22257 -0.00830456 0)
(0.220967 -0.0079726 0)
(0.219451 -0.00758002 0)
(0.218031 -0.00713994 0)
(0.216712 -0.00666329 0)
(0.215498 -0.00615941 0)
(0.214391 -0.00563627 0)
(0.213392 -0.00510042 0)
(0.212499 -0.00455718 0)
(0.211713 -0.00401062 0)
(0.211031 -0.00346377 0)
(0.210453 -0.00291878 0)
(0.209975 -0.00237744 0)
(0.209597 -0.00184319 0)
(0.209313 -0.00132946 0)
(0.209089 -0.000899368 0)
(0.229473 -0.0069456 0)
(0.227754 -0.00703727 0)
(0.226092 -0.00701129 0)
(0.224441 -0.00689378 0)
(0.222832 -0.00669973 0)
(0.221288 -0.00644286 0)
(0.219821 -0.00613575 0)
(0.21844 -0.00578877 0)
(0.217151 -0.00541062 0)
(0.215959 -0.00500875 0)
(0.214867 -0.00458959 0)
(0.213878 -0.00415852 0)
(0.212991 -0.0037199 0)
(0.212208 -0.0032772 0)
(0.211526 -0.00283301 0)
(0.210946 -0.00238925 0)
(0.210466 -0.00194756 0)
(0.210085 -0.00151089 0)
(0.209799 -0.00109042 0)
(0.209572 -0.000737947 0)
(0.229381 -0.00530541 0)
(0.22776 -0.00538811 0)
(0.226173 -0.00537775 0)
(0.224585 -0.00529534 0)
(0.223031 -0.00515305 0)
(0.221534 -0.00496174 0)
(0.220107 -0.0047311 0)
(0.218757 -0.00446902 0)
(0.217493 -0.00418203 0)
(0.21632 -0.00387582 0)
(0.215242 -0.00355528 0)
(0.214262 -0.00322457 0)
(0.213381 -0.00288711 0)
(0.2126 -0.00254563 0)
(0.21192 -0.00220224 0)
(0.211339 -0.00185852 0)
(0.210858 -0.00151582 0)
(0.210475 -0.00117658 0)
(0.210188 -0.000849544 0)
(0.20996 -0.000575142 0)
(0.229308 -0.0037359 0)
(0.227762 -0.0038059 0)
(0.22623 -0.00380435 0)
(0.224688 -0.00374942 0)
(0.223175 -0.00365138 0)
(0.221714 -0.00351848 0)
(0.220315 -0.00335763 0)
(0.21899 -0.00317428 0)
(0.217745 -0.00297294 0)
(0.216586 -0.00275753 0)
(0.215519 -0.00253146 0)
(0.214547 -0.00229768 0)
(0.213671 -0.00205862 0)
(0.212893 -0.00181626 0)
(0.212214 -0.00157213 0)
(0.211634 -0.00132741 0)
(0.211152 -0.00108312 0)
(0.210768 -0.000841041 0)
(0.21048 -0.000607493 0)
(0.210251 -0.00041152 0)
(0.229264 -0.00222822 0)
(0.22777 -0.00227398 0)
(0.226274 -0.00227312 0)
(0.224759 -0.00223952 0)
(0.223271 -0.00218064 0)
(0.221832 -0.00210155 0)
(0.220453 -0.00200614 0)
(0.219143 -0.00189744 0)
(0.21791 -0.00177799 0)
(0.216762 -0.00165002 0)
(0.215702 -0.00151552 0)
(0.214735 -0.00137622 0)
(0.213863 -0.00123359 0)
(0.213088 -0.00108881 0)
(0.21241 -0.000942808 0)
(0.21183 -0.00079631 0)
(0.211348 -0.000649952 0)
(0.210964 -0.000504796 0)
(0.210674 -0.000364694 0)
(0.210445 -0.000247536 0)
(0.229288 -0.000719429 0)
(0.227802 -0.000752477 0)
(0.226309 -0.000756087 0)
(0.224801 -0.00074526 0)
(0.223321 -0.000725478 0)
(0.221891 -0.000699064 0)
(0.220521 -0.000667348 0)
(0.219219 -0.000631285 0)
(0.217993 -0.00059167 0)
(0.216849 -0.000549218 0)
(0.215793 -0.000504573 0)
(0.214829 -0.000458305 0)
(0.213959 -0.000410898 0)
(0.213185 -0.000362746 0)
(0.212507 -0.000314163 0)
(0.211928 -0.000265391 0)
(0.211445 -0.000216645 0)
(0.211062 -0.000168271 0)
(0.210772 -0.000121573 0)
(0.210542 -8.27504e-05 0)
(0.278496 -0.00258141 3.86673e-21)
(0.277461 -0.0111839 0)
(0.275053 -0.0196405 -8.47595e-22)
(0.27132 -0.0277802 -2.57084e-20)
(0.266345 -0.0354287 5.00806e-20)
(0.260239 -0.0424116 0)
(0.253144 -0.0485542 4.51291e-20)
(0.245165 -0.0536742 0)
(0.23683 -0.0576203 4.16052e-20)
(0.225448 -0.0599695 -6.29659e-22)
(0.273011 -0.00227435 -3.90834e-21)
(0.272101 -0.00984218 9.03463e-22)
(0.269983 -0.0172725 -9.05068e-22)
(0.266712 -0.0244249 -1.97887e-22)
(0.262371 -0.0311608 -2.39548e-20)
(0.257069 -0.0373436 -1.55026e-21)
(0.250945 -0.0428381 0)
(0.244102 -0.0475106 -4.37815e-20)
(0.237332 -0.0512614 0)
(0.226364 -0.0534618 -3.97165e-20)
(0.268373 -0.00203269 7.86402e-21)
(0.267574 -0.00853171 0)
(0.265743 -0.0149225 -8.65869e-22)
(0.262929 -0.0210907 6.99132e-22)
(0.259208 -0.0269256 2.55374e-20)
(0.254679 -0.0323212 0)
(0.249466 -0.0371776 4.49885e-20)
(0.243618 -0.0414064 4.49954e-20)
(0.2381 -0.0449755 0)
(0.228216 -0.0473753 3.93049e-20)
(0.264432 -0.00178385 -3.47273e-21)
(0.26373 -0.00738273 1.46258e-20)
(0.262141 -0.012892 0)
(0.259709 -0.0182218 2.71759e-20)
(0.256504 -0.0232858 1.57267e-21)
(0.252613 -0.028004 -3.0663e-21)
(0.248143 -0.0323038 -4.33856e-20)
(0.243102 -0.036122 -1.41826e-21)
(0.238492 -0.0394257 -4.21127e-20)
(0.229752 -0.0419666 0)
(0.261052 -0.00157259 0)
(0.260428 -0.00641464 -1.42509e-20)
(0.259033 -0.0111835 -1.62945e-20)
(0.25691 -0.0158075 2.55369e-21)
(0.254119 -0.0202189 -1.67266e-21)
(0.250739 -0.0243561 -1.50221e-21)
(0.246866 -0.0281641 -4.405e-20)
(0.242485 -0.0315978 -2.77149e-21)
(0.238544 -0.0346036 9.42302e-22)
(0.23092 -0.0371059 3.99289e-20)
(0.258134 -0.00138467 4.01654e-21)
(0.257575 -0.00557814 9.34001e-22)
(0.256339 -0.00971133 -1.86998e-21)
(0.254466 -0.0137272 8.87102e-22)
(0.252011 -0.0175722 -2.63124e-20)
(0.249044 -0.0211981 0)
(0.245651 -0.024563 4.83074e-20)
(0.241813 -0.0276347 -1.42941e-21)
(0.238373 -0.0303445 8.41852e-20)
(0.231744 -0.0327165 -7.94285e-20)
(0.255604 -0.00121702 -4.03634e-21)
(0.255098 -0.00485156 -7.7152e-21)
(0.253991 -0.00843638 1.4649e-20)
(0.25232 -0.0119258 -2.62209e-20)
(0.250135 -0.0152772 -1.81602e-21)
(0.2475 -0.0184524 -2.50661e-20)
(0.244492 -0.0214183 1.43763e-21)
(0.241097 -0.0241521 -2.79026e-21)
(0.238036 -0.0265799 -4.06171e-20)
(0.232262 -0.0287751 3.95031e-20)
(0.253403 -0.00106734 0)
(0.252941 -0.00421643 1.64638e-20)
(0.25194 -0.00732452 -1.84658e-21)
(0.250431 -0.0103548 1.48513e-20)
(0.248463 -0.0132731 -1.09845e-22)
(0.246095 -0.0160487 4.87191e-20)
(0.243394 -0.0186552 -2.22606e-20)
(0.240359 -0.0210756 0)
(0.237589 -0.0232395 0)
(0.232537 -0.0252386 0)
(0.251488 -0.000933161 0)
(0.251063 -0.00365738 -1.46624e-20)
(0.250146 -0.00634788 -9.51157e-22)
(0.24877 -0.00897488 1.4089e-20)
(0.246977 -0.0115108 2.66692e-20)
(0.244822 -0.0139306 -2.67204e-20)
(0.242368 -0.0162133 2.67072e-20)
(0.239624 -0.0183453 -1.43728e-21)
(0.237077 -0.0202644 0)
(0.23263 -0.0220644 1.98001e-20)
(0.249825 -0.000812365 5.03086e-22)
(0.249429 -0.00316197 8.30908e-21)
(0.248582 -0.00548403 1.31031e-20)
(0.247312 -0.0077544 -8.23408e-22)
(0.245661 -0.00995069 1.72024e-21)
(0.243678 -0.0120526 -2.69329e-20)
(0.241421 -0.0140431 2.68888e-20)
(0.23891 -0.0159108 -1.43806e-21)
(0.236536 -0.0176041 0)
(0.232592 -0.0192101 -3.9325e-20)
(0.248385 -0.000703065 0)
(0.248014 -0.0027199 7.9103e-21)
(0.247223 -0.00471446 2.84482e-23)
(0.24604 -0.00666726 0)
(0.244503 -0.00856013 0)
(0.242658 -0.0103766 2.38354e-20)
(0.240558 -0.0121027 -2.23224e-20)
(0.238233 -0.0137287 -1.36476e-21)
(0.235992 -0.0152136 7.08467e-22)
(0.232465 -0.0166345 2.0156e-20)
(0.247147 -0.000603589 0)
(0.246795 -0.00232251 -1.4932e-20)
(0.24605 -0.00402374 -1.70131e-20)
(0.244937 -0.00569166 2.66943e-21)
(0.243492 -0.00731164 -1.73505e-21)
(0.241758 -0.00887029 -1.5554e-21)
(0.239784 -0.0103564 2.99371e-21)
(0.237605 -0.0117613 1.96489e-20)
(0.235464 -0.0130534 1.97957e-21)
(0.232283 -0.0142993 -6.25639e-22)
(0.24609 -0.000512453 0)
(0.245755 -0.00196247 7.99439e-21)
(0.245047 -0.00339882 -9.29952e-22)
(0.243991 -0.00480917 9.22217e-22)
(0.242619 -0.00618189 0)
(0.240974 -0.00750622 0)
(0.239099 -0.00877321 0)
(0.237034 -0.00997504 -2.2352e-20)
(0.234969 -0.0110884 2.08964e-20)
(0.232071 -0.012169 0)
(0.245199 -0.000428331 0)
(0.244878 -0.00163349 5.00818e-21)
(0.2442 -0.00282853 6.67827e-21)
(0.243189 -0.00400398 9.01998e-21)
(0.241876 -0.0051508 -1.74813e-21)
(0.2403 -0.00626053 1.12759e-20)
(0.238504 -0.00732608 -1.04751e-20)
(0.236527 -0.00834055 0)
(0.234517 -0.00928721 6.97882e-22)
(0.23185 -0.0102117 -1.99018e-20)
(0.244461 -0.000350033 -1.05855e-21)
(0.24415 -0.00133011 -4.04327e-21)
(0.243497 -0.00230323 -8.62725e-21)
(0.242522 -0.00326241 -6.34106e-21)
(0.241255 -0.00420089 0)
(0.239734 -0.00511228 -1.44062e-20)
(0.237998 -0.00599113 1.49883e-20)
(0.236088 -0.00683154 -1.43205e-21)
(0.234116 -0.00762183 -1.03096e-20)
(0.231635 -0.00839813 2.86778e-20)
(0.243864 -0.000276492 1.064e-21)
(0.243561 -0.00104764 -3.07339e-21)
(0.242927 -0.00181461 2.88004e-21)
(0.24198 -0.00257262 -7.31492e-21)
(0.24075 -0.00331694 0)
(0.239271 -0.00404304 0)
(0.237581 -0.00474703 1.46366e-21)
(0.23572 -0.00542419 -1.39439e-20)
(0.233774 -0.00606669 -8.97208e-21)
(0.231439 -0.00670198 -9.48666e-21)
(0.243396 -0.000206397 0)
(0.2431 -0.000781639 5.08945e-21)
(0.24248 -0.00135518 -1.93926e-21)
(0.241556 -0.00192419 6.48055e-21)
(0.240354 -0.00248579 1.76507e-21)
(0.238907 -0.00303714 -1.57417e-21)
(0.237251 -0.00357582 3.00166e-21)
(0.235424 -0.00409851 9.68217e-21)
(0.233495 -0.00460034 0)
(0.231269 -0.00510081 0)
(0.243046 -0.000139987 0)
(0.242754 -0.000528349 2.05639e-21)
(0.242146 -0.000917031 -3.90285e-21)
(0.241239 -0.00130491 0)
(0.240059 -0.00169082 -3.46169e-21)
(0.238637 -0.00207373 -1.5766e-21)
(0.237006 -0.00245301 -4.46648e-21)
(0.235204 -0.00282742 -1.3513e-21)
(0.233285 -0.00319509 6.8916e-22)
(0.231138 -0.00356909 6.01093e-22)
(0.242805 -7.47339e-05 0)
(0.242516 -0.000296068 -2.06634e-21)
(0.241916 -0.000518895 -1.94115e-21)
(0.241022 -0.000743055 2.7552e-21)
(0.239858 -0.000968179 1.69225e-21)
(0.238454 -0.00119381 1.61789e-21)
(0.236841 -0.00141982 7.45302e-21)
(0.235057 -0.00164614 -5.53262e-21)
(0.233145 -0.00187392 1.30347e-21)
(0.231049 -0.00211493 0)
(0.242643 -1.06279e-06 0)
(0.242357 -1.07156e-05 1.02401e-21)
(0.241765 -2.58165e-05 -9.92199e-22)