/*--------------------------------*- C++ -*----------------------------------*\
| =========                 |                                                 |
| \\      /  F ield         | OpenFOAM: The Open Source CFD Toolbox           |
|  \\    /   O peration     | Version:  4.1                                   |
|   \\  /    A nd           | Web:      www.OpenFOAM.org                      |
|    \\/     M anipulation  |                                                 |
\*---------------------------------------------------------------------------*/
FoamFile
{
    version     2.0;
    format      ascii;
    class       volVectorField;
    location    "1.4";
    object      U;
}
// * * * * * * * * * * * * * * * * * * * * * * * * * * * * * * * * * * * * * //

dimensions      [0 1 -1 0 0 0 0];

internalField   nonuniform List<vector> 
2000
(
(0.0708015 -0.0600387 -2.92474e-20)
(0.173955 -0.133412 0)
(0.247638 -0.169852 -5.30329e-20)
(0.294941 -0.183275 -2.57811e-20)
(0.322861 -0.182401 4.75631e-20)
(0.337879 -0.173524 6.78977e-20)
(0.344958 -0.160976 -2.06578e-20)
(0.347543 -0.147453 0)
(0.347514 -0.13502 1.94098e-20)
(0.346388 -0.125284 0)
(0.0828291 -0.0602101 1.42293e-20)
(0.199494 -0.13179 -1.47482e-20)
(0.279069 -0.16612 5.34676e-20)
(0.327656 -0.177957 7.70375e-20)
(0.35432 -0.176157 9.82743e-22)
(0.366902 -0.166913 -2.24715e-20)
(0.371183 -0.154342 2.31481e-20)
(0.371048 -0.140963 2.15953e-20)
(0.368555 -0.128841 -1.941e-20)
(0.365257 -0.119223 -3.78264e-20)
(0.0952118 -0.0588293 -1.55443e-20)
(0.225098 -0.12667 1.45606e-20)
(0.309969 -0.157953 -2.75175e-20)
(0.35931 -0.167909 1.09708e-21)
(0.384388 -0.165279 -2.50921e-20)
(0.394414 -0.155984 -2.39216e-20)
(0.395945 -0.143847 -2.27524e-20)
(0.393234 -0.131163 -2.15955e-20)
(0.388515 -0.119815 -2.15998e-20)
(0.383303 -0.11058 2.05409e-20)
(0.107697 -0.0558117 -1.89149e-22)
(0.25018 -0.118026 1.51397e-20)
(0.339589 -0.145456 0)
(0.389118 -0.153363 -2.70534e-20)
(0.412307 -0.150078 2.64662e-20)
(0.419701 -0.141067 0)
(0.418551 -0.129748 0)
(0.413403 -0.118129 0)
(0.406629 -0.107855 2.16001e-20)
(0.399772 -0.0993245 -4.12367e-20)
(0.120005 -0.0511104 -3.39721e-20)
(0.274131 -0.105923 -5.74444e-22)
(0.367196 -0.128858 -1.56279e-20)
(0.416339 -0.134676 -1.36052e-20)
(0.437391 -0.130994 -1.44287e-20)
(0.442154 -0.122639 -1.38456e-20)
(0.438479 -0.112525 0)
(0.431124 -0.102324 -1.26705e-20)
(0.422549 -0.0934003 5.91537e-20)
(0.414234 -0.0858228 -7.80663e-20)
(0.131832 -0.044723 5.22941e-20)
(0.296336 -0.090525 -1.94426e-22)
(0.392084 -0.1085 3.18867e-20)
(0.440296 -0.112312 -3.01467e-20)
(0.459035 -0.108552 4.43521e-20)
(0.461248 -0.101235 -1.42481e-20)
(0.455269 -0.092692 0)
(0.445993 -0.0842267 1.26706e-20)
(0.435909 -0.0769043 -1.2091e-20)
(0.426381 -0.0705424 -4.85058e-20)
(0.142863 -0.0366987 0)
(0.316198 -0.0721002 0)
(0.413605 -0.0848362 1.71206e-20)
(0.460394 -0.0868331 -1.59396e-20)
(0.476732 -0.0833529 1.57807e-20)
(0.476558 -0.0774473 -1.4816e-20)
(0.468565 -0.0708052 -2.89504e-20)
(0.457698 -0.0643445 2.73642e-20)
(0.446424 -0.0588204 2.64455e-20)
(0.435943 -0.0538927 -1.28856e-20)
(0.152775 -0.027143 -1.00196e-20)
(0.333155 -0.0510177 0)
(0.431191 -0.0584198 8.92571e-21)
(0.476142 -0.0588816 -3.41779e-20)
(0.490087 -0.0560577 2.46979e-20)
(0.487771 -0.0519099 0)
(0.478109 -0.0474472 0)
(0.466018 -0.0432007 0)
(0.45389 -0.0396165 2.8031e-20)
(0.442738 -0.0362958 -2.66417e-20)
(0.16126 -0.0162198 4.81536e-21)
(0.346706 -0.0277424 -1.95844e-22)
(0.444371 -0.0298912 9.14462e-21)
(0.487167 -0.0291629 -4.65149e-21)
(0.498825 -0.0273654 -4.13825e-21)
(0.494683 -0.0252759 -8.26936e-21)
(0.483746 -0.0232093 0)
(0.470822 -0.0213203 3.96433e-21)
(0.458183 -0.0197607 1.86487e-20)
(0.446664 -0.0181681 -1.41102e-20)
(0.168028 -0.00415121 0)
(0.35643 -0.00282491 5.07083e-21)
(0.452791 3.9276e-05 0)
(0.493222 0.00157373 2.22599e-21)
(0.502792 0.00200312 2.08908e-21)
(0.497205 0.00179617 4.37143e-21)
(0.485415 0.00132131 0)
(0.47206 0.000774556 -3.96438e-21)
(0.459257 0.000263988 -3.80186e-21)
(0.447703 7.80594e-05 -3.76677e-21)
(0.00338249 -0.00396842 0)
(0.0182331 -0.00956086 3.11075e-21)
(0.0435323 -0.0128212 0)
(0.0710388 -0.014376 4.03948e-21)
(0.0978692 -0.0147144 1.24688e-21)
(0.122646 -0.0142615 -2.28171e-21)
(0.144691 -0.0133576 2.14875e-21)
(0.163852 -0.0122435 -1.95737e-21)
(0.18029 -0.0110661 -3.70114e-23)
(0.19429 -0.00987287 -1.67146e-21)
(0.00466293 -0.0118578 9.73729e-21)
(0.0214202 -0.0285002 -6.14547e-21)
(0.0479267 -0.0381919 5.77971e-21)
(0.0760412 -0.0427911 -2.68274e-21)
(0.103053 -0.0437703 -1.24351e-20)
(0.127726 -0.0424021 4.64519e-21)
(0.1495 -0.039699 0)
(0.168307 -0.0363759 1.95085e-21)
(0.184381 -0.0328674 1.79088e-21)
(0.198023 -0.0293168 0)
(0.00723691 -0.019587 -6.4726e-21)
(0.0277692 -0.0469086 0)
(0.0566395 -0.062748 -1.73643e-20)
(0.0859489 -0.0701973 2.15413e-20)
(0.113303 -0.0717148 -5.05973e-21)
(0.137759 -0.069405 0)
(0.158989 -0.0649288 0)
(0.177096 -0.0594535 0)
(0.19245 -0.0536817 -1.42838e-20)
(0.205391 -0.0478545 1.35763e-20)
(0.0110958 -0.0270336 0)
(0.0372139 -0.064445 1.25067e-20)
(0.0695336 -0.0859522 -2.32414e-20)
(0.100562 -0.0959377 1.08512e-20)
(0.128379 -0.0978355 -1.00531e-20)
(0.152487 -0.0945487 2.80357e-20)
(0.172905 -0.0883477 -3.60994e-22)
(0.189979 -0.0808164 -1.62208e-20)
(0.20428 -0.0728905 -1.45367e-20)
(0.216211 -0.0649091 2.06972e-20)
(0.0162241 -0.0340787 -1.3178e-20)
(0.049646 -0.0807566 2.49741e-20)
(0.0863942 -0.107281 3.42542e-23)
(0.119573 -0.119386 -9.08922e-23)
(0.147915 -0.121465 -1.00593e-20)
(0.171516 -0.117171 2.87215e-20)
(0.190854 -0.109328 0)
(0.206588 -0.0998828 8.26621e-21)
(0.219536 -0.0899536 -7.65007e-21)
(0.230189 -0.07997 2.753e-20)
(0.0225975 -0.0405946 1.95257e-22)
(0.0649099 -0.0954882 -2.50771e-20)
(0.106919 -0.126227 -1.17886e-20)
(0.14256 -0.139954 -1.13404e-20)
(0.171409 -0.141994 -1.03071e-20)
(0.194311 -0.136687 -9.60054e-21)
(0.212304 -0.127336 0)
(0.226421 -0.116178 -8.26622e-21)
(0.237758 -0.104441 -2.29491e-20)
(0.246917 -0.0926169 7.42336e-21)
(0.0301758 -0.0464425 1.47061e-22)
(0.082793 -0.108285 -1.26328e-20)
(0.130714 -0.142309 0)
(0.168983 -0.157107 2.21975e-20)
(0.198234 -0.158892 -2.11172e-20)
(0.220203 -0.15261 0)
(0.236588 -0.141955 0)
(0.248845 -0.129366 0)
(0.258366 -0.116074 1.62851e-20)
(0.26587 -0.102563 2.86498e-20)
(0.0388951 -0.0514716 1.36744e-20)
(0.103017 -0.118797 -1.2809e-20)
(0.15729 -0.155081 -2.46253e-20)
(0.198196 -0.170375 -4.73619e-22)
(0.227646 -0.171713 -2.19024e-20)
(0.248411 -0.164556 -2.05994e-20)
(0.262936 -0.152897 -1.93225e-20)
(0.273145 -0.139279 -1.80842e-20)
(0.280711 -0.124795 -1.62852e-20)
(0.286432 -0.109756 1.51522e-20)
(0.0486618 -0.0555218 4.17149e-20)
(0.125234 -0.126688 1.35699e-20)
(0.186069 -0.164141 5.01889e-20)
(0.229455 -0.179357 2.37216e-20)
(0.258801 -0.180091 -6.18877e-22)
(0.278046 -0.17222 2.02154e-20)
(0.290464 -0.159955 -2.03494e-20)
(0.298517 -0.145869 1.80843e-20)
(0.304161 -0.130822 -1.76169e-20)
(0.308166 -0.114742 3.16751e-20)
(0.0593497 -0.0584297 -2.78019e-20)
(0.149034 -0.131647 0)
(0.216408 -0.169149 -2.51604e-20)
(0.261961 -0.183728 4.7313e-22)
(0.290802 -0.183721 -1.85379e-22)
(0.308125 -0.175302 -2.19829e-20)
(0.318074 -0.162815 6.07461e-20)
(0.323702 -0.148854 0)
(0.327305 -0.134332 1.7617e-20)
(0.33017 -0.119109 0)
(0.206037 -0.00859742 0)
(0.216643 -0.00747996 1.44223e-21)
(0.225986 -0.00650225 -2.8256e-21)
(0.234154 -0.00565314 1.21426e-21)
(0.241307 -0.00491638 0)
(0.24758 -0.00427565 -1.1646e-21)
(0.253081 -0.00371824 1.17037e-21)
(0.257901 -0.00323372 0)
(0.262123 -0.00281249 0)
(0.265817 -0.0024456 -1.12774e-22)
(0.269046 -0.00212484 0)
(0.271862 -0.00184292 0)
(0.274306 -0.00159341 0)
(0.276415 -0.00137068 0)
(0.278209 -0.00116916 1.10565e-22)
(0.279717 -0.0009819 -1.11138e-22)
(0.28099 -0.00081217 0)
(0.282064 -0.00065885 2.25539e-23)
(0.282963 -0.000522143 -2.26725e-23)
(0.283792 -0.000415229 0)
(0.209044 -0.0255697 0)
(0.219173 -0.0222587 -3.73848e-22)
(0.228129 -0.0193566 0)
(0.235966 -0.0168351 -5.08616e-21)
(0.242844 -0.0146452 4.95598e-21)
(0.248894 -0.0127387 -3.04269e-22)
(0.254212 -0.0110789 2.18746e-21)
(0.258883 -0.00963538 -4.49772e-21)
(0.262981 -0.0083798 3.67369e-21)
(0.266574 -0.0072856 -2.00052e-21)
(0.269721 -0.00632857 -1.55585e-21)
(0.272469 -0.00548707 2.76864e-21)
(0.274859 -0.00474184 -1.39801e-21)
(0.276925 -0.00407564 -6.71833e-22)
(0.278691 -0.00347122 5.3045e-22)
(0.280171 -0.00291084 -1.00726e-22)
(0.281412 -0.00240807 -7.88106e-23)
(0.282457 -0.0019556 -9.013e-23)
(0.283331 -0.00155046 9.05665e-23)
(0.284139 -0.00122992 -1.16655e-23)
(0.214991 -0.0418616 3.96604e-22)
(0.224178 -0.0364718 3.74494e-22)
(0.232369 -0.0317357 3.63753e-22)
(0.23955 -0.0276208 0)
(0.245884 -0.024042 5.68633e-21)
(0.251492 -0.0209212 -4.44249e-21)
(0.256448 -0.0182017 0)
(0.260821 -0.0158354 5.36045e-22)
(0.264676 -0.0137761 2.46059e-22)
(0.26807 -0.0119809 -3.01453e-21)
(0.271053 -0.0104102 3.43263e-22)
(0.273669 -0.00902923 3.52678e-21)
(0.275952 -0.00780703 1.66947e-22)
(0.277935 -0.00671675 1.42979e-22)
(0.279644 -0.00573445 1.2367e-22)
(0.281062 -0.00483923 -2.57816e-22)
(0.28223 -0.00399381 2.47073e-22)
(0.28322 -0.00323186 2.7083e-22)
(0.28405 -0.00255394 5.72531e-23)
(0.284815 -0.00201438 2.42223e-25)
(0.223762 -0.0570276 1.21772e-20)
(0.231562 -0.049744 -5.81876e-22)
(0.238611 -0.0433233 -9.69956e-22)
(0.244815 -0.0377445 -1.15013e-20)
(0.250346 -0.0328805 -9.98815e-22)
(0.255299 -0.0286281 -3.08801e-22)
(0.25972 -0.024917 8.42399e-21)
(0.263653 -0.0216841 -5.12733e-21)
(0.267148 -0.0188678 -4.19692e-21)
(0.270248 -0.0164101 3.76205e-21)
(0.272992 -0.0142583 -3.47952e-22)
(0.27541 -0.0123654 -3.7637e-21)
(0.27753 -0.0106899 -1.65556e-22)
(0.279377 -0.00919558 -1.37013e-21)
(0.280973 -0.00785096 9.56079e-22)
(0.282351 -0.00662342 7.22534e-22)
(0.283482 -0.00545825 -6.42781e-22)
(0.284378 -0.00441317 0)
(0.285129 -0.00348288 -1.03337e-22)
(0.285824 -0.00273696 -1.15205e-23)
(0.235154 -0.070666 -2.70118e-20)
(0.241156 -0.0617406 1.15917e-20)
(0.246707 -0.053846 -1.24184e-20)
(0.251635 -0.0469832 0)
(0.256121 -0.0409782 6.70908e-22)
(0.260224 -0.0357128 9.89158e-21)
(0.263949 -0.0311099 -8.82154e-23)
(0.267312 -0.0270945 -6.88098e-22)
(0.270341 -0.0235916 -8.5687e-21)
(0.273062 -0.0205307 -4.64912e-22)
(0.275494 -0.0178476 0)
(0.277657 -0.0154847 3.78791e-22)
(0.279571 -0.0133911 0)
(0.281253 -0.0115224 2.9125e-22)
(0.282724 -0.00984002 0)
(0.28401 -0.00831006 0)
(0.285034 -0.00691581 -1.57732e-22)
(0.285818 -0.00557535 1.83041e-22)
(0.286482 -0.00437313 -1.61258e-22)
(0.287098 -0.00340686 4.62499e-23)
(0.248868 -0.0824152 0)
(0.252702 -0.0721511 8.10931e-22)
(0.256426 -0.0630462 2.44274e-20)
(0.259811 -0.0551148 -2.36695e-20)
(0.26304 -0.0481369 7.14426e-22)
(0.266118 -0.0419934 0)
(0.269003 -0.0366075 9.49572e-21)
(0.271681 -0.0318965 -1.77016e-20)
(0.274152 -0.0277771 9.32468e-21)
(0.276416 -0.024171 4.91085e-22)
(0.278476 -0.0210056 4.4506e-22)
(0.280334 -0.0182154 3.98765e-22)
(0.281997 -0.0157424 0)
(0.283471 -0.0135363 -1.91206e-21)
(0.284763 -0.0115541 4.32596e-21)
(0.285892 -0.00976128 -1.84961e-21)
(0.286894 -0.00813054 1.6494e-22)
(0.287665 -0.00657695 1.17715e-22)
(0.288202 -0.00513151 -4.63728e-23)
(0.288699 -0.00396525 4.65224e-23)
(0.264505 -0.0919765 -2.92649e-20)
(0.265839 -0.080735 0)
(0.267472 -0.0707516 8.33313e-22)
(0.269122 -0.0620198 -1.54759e-21)
(0.270942 -0.0542928 -1.458e-21)
(0.272867 -0.0474647 -6.96577e-22)
(0.274805 -0.0414584 -6.4948e-22)
(0.276706 -0.0361855 8.48413e-21)
(0.27854 -0.0315591 -1.0131e-20)
(0.28028 -0.0274966 -8.54519e-21)
(0.281909 -0.0239207 7.09678e-21)
(0.283414 -0.0207605 -8.02681e-22)
(0.284786 -0.0179528 2.63752e-21)
(0.286022 -0.0154419 -6.74307e-22)
(0.287121 -0.0131791 -2.77092e-21)
(0.288089 -0.0111229 -2.15652e-22)
(0.288937 -0.00924358 2.3322e-22)
(0.289636 -0.00753448 -3.01823e-22)
(0.290115 -0.00590542 -4.44287e-22)
(0.29047 -0.00450357 -2.38486e-23)
(0.281571 -0.099077 0)
(0.280068 -0.0872797 2.81822e-20)
(0.279411 -0.0767821 -2.88955e-20)
(0.279212 -0.0674784 7.91729e-22)
(0.279522 -0.0591582 1.51994e-21)
(0.280209 -0.0517572 6.95972e-22)
(0.281135 -0.045212 1.32217e-21)
(0.282209 -0.0394439 0)
(0.283363 -0.0343712 5.49669e-22)
(0.284544 -0.0299119 5.00746e-22)
(0.285713 -0.0259856 4.70921e-22)
(0.28684 -0.0225172 8.23314e-22)
(0.287901 -0.0194391 0)
(0.288882 -0.016691 0)
(0.289771 -0.0142206 2.58315e-22)
(0.290563 -0.0119827 1.96062e-21)
(0.291263 -0.00994262 -1.36077e-21)
(0.291874 -0.0080799 1.20994e-22)
(0.292355 -0.0063689 2.36239e-22)
(0.292662 -0.00487216 -7.12966e-23)
(0.299768 -0.103652 -3.30205e-20)
(0.294982 -0.0919026 0)
(0.291989 -0.0815063 0)
(0.289998 -0.0721484 2.63553e-20)
(0.288796 -0.0636733 -2.30833e-21)
(0.288199 -0.0560326 -4.73702e-20)
(0.288051 -0.049184 2.20753e-20)
(0.288228 -0.0430805 0)
(0.288636 -0.0376657 0)
(0.289198 -0.0328714 0)
(0.289852 -0.0286241 -2.20786e-22)
(0.290552 -0.0248512 -6.30503e-22)
(0.29126 -0.0214846 -5.52832e-21)
(0.291949 -0.0184632 5.32629e-21)
(0.292598 -0.0157325 -1.95061e-21)
(0.293193 -0.0132443 1.72356e-21)
(0.29372 -0.010958 0)
(0.294174 -0.00884678 -5.5724e-23)
(0.294542 -0.00690606 -6.99717e-23)
(0.294843 -0.00521875 0)
(0.319211 -0.106026 5.18479e-22)
(0.310141 -0.093801 3.16287e-20)
(0.304473 -0.0828127 -3.12989e-20)
(0.300709 -0.0729796 0)
(0.29809 -0.0641785 -2.60541e-20)
(0.296309 -0.0562815 4.99625e-20)
(0.295171 -0.0492109 -2.39295e-20)
(0.294518 -0.0429141 0)
(0.29423 -0.0373376 -9.30246e-21)
(0.294209 -0.0324174 1.76043e-20)
(0.294379 -0.0280823 -8.55175e-21)
(0.294677 -0.0242592 2.133e-22)
(0.295053 -0.0208783 0)
(0.29547 -0.0178752 5.03737e-21)
(0.295898 -0.015192 -6.84595e-21)
(0.296315 -0.0127774 1.99623e-21)
(0.296707 -0.0105857 1.18886e-21)
(0.297061 -0.00857957 -8.44488e-22)
(0.297365 -0.00674149 -3.89337e-22)
(0.297642 -0.00515077 0)
(0.340745 -0.104581 0)
(0.327369 -0.0978941 0)
(0.318074 -0.0896596 0)
(0.311828 -0.0811266 0)
(0.307412 -0.0727607 0)
(0.304255 -0.0648229 0)
(0.302041 -0.0574523 0)
(0.300527 -0.0507089 0)
(0.299528 -0.0446014 0)
(0.29891 -0.0391026 0)
(0.298571 -0.0341629 0)
(0.298434 -0.0297227 0)
(0.298439 -0.0257208 0)
(0.298538 -0.0220987 0)
(0.298697 -0.0188024 0)
(0.298888 -0.0157831 0)
(0.29909 -0.0129971 0)
(0.299289 -0.0104083 0)
(0.299473 -0.00799813 0)
(0.299675 -0.0058513 0)
(0.347179 -0.0894551 0)
(0.336475 -0.0842018 0)
(0.327412 -0.0782042 0)
(0.320516 -0.0718884 0)
(0.315259 -0.0654341 0)
(0.311259 -0.0590341 0)
(0.308269 -0.0528741 0)
(0.306069 -0.0470846 0)
(0.304474 -0.0417332 0)
(0.303336 -0.0368372 0)
(0.302545 -0.0323805 0)
(0.302014 -0.0283294 0)
(0.301676 -0.0246424 0)
(0.301479 -0.0212766 0)
(0.301384 -0.0181905 0)
(0.301359 -0.0153446 0)
(0.301381 -0.0127029 0)
(0.301431 -0.0102346 0)
(0.301496 -0.00792601 0)
(0.301578 -0.00586458 0)
(0.351193 -0.0787497 0)
(0.341948 -0.0749027 0)
(0.333738 -0.0704809 0)
(0.32708 -0.0656096 0)
(0.321682 -0.0604308 0)
(0.31733 -0.0551132 0)
(0.313892 -0.0498383 0)
(0.311221 -0.0447557 0)
(0.309169 -0.0399608 0)
(0.307606 -0.0354989 0)
(0.306427 -0.0313793 0)
(0.305548 -0.0275886 0)
(0.304901 -0.0241024 0)
(0.304432 -0.0208907 0)
(0.304101 -0.0179222 0)
(0.303872 -0.0151658 0)
(0.303722 -0.0125921 0)
(0.30363 -0.0101755 0)
(0.30358 -0.00790565 0)
(0.30355 -0.00586641 0)
(0.353995 -0.0698156 0)
(0.345747 -0.0670719 0)
(0.338354 -0.0637276 0)
(0.332136 -0.0598889 0)
(0.326873 -0.0556869 0)
(0.32245 -0.0512609 0)
(0.318808 -0.0467652 0)
(0.315861 -0.0423386 0)
(0.313499 -0.0380814 0)
(0.311621 -0.0340516 0)
(0.310138 -0.0302747 0)
(0.308973 -0.0267535 0)
(0.308064 -0.0234775 0)
(0.30736 -0.0204291 0)
(0.306818 -0.0175867 0)
(0.306408 -0.0149271 0)
(0.306101 -0.0124271 0)
(0.305878 -0.0100662 0)
(0.305725 -0.00783719 0)
(0.305597 -0.00582129 0)
(0.356091 -0.0618405 0)
(0.348645 -0.0598857 0)
(0.341923 -0.0573379 0)
(0.336129 -0.0543014 0)
(0.331084 -0.0508877 0)
(0.326723 -0.0472114 0)
(0.323026 -0.0434015 0)
(0.319938 -0.0395801 0)
(0.317386 -0.035841 0)
(0.315292 -0.0322455 0)
(0.313583 -0.028827 0)
(0.312196 -0.0255993 0)
(0.311076 -0.0225624 0)
(0.310176 -0.0197083 0)
(0.309458 -0.0170237 0)
(0.30889 -0.0144926 0)
(0.308447 -0.0120976 0)
(0.308109 -0.00982299 0)
(0.307863 -0.00766478 0)
(0.307648 -0.00570179 0)
(0.357611 -0.0546605 0)
(0.350858 -0.0533224 0)
(0.344717 -0.05141 0)
(0.339319 -0.0490215 0)
(0.334521 -0.0462534 0)
(0.33029 -0.0432038 0)
(0.326622 -0.0399835 0)
(0.323485 -0.0366984 0)
(0.320829 -0.0334334 0)
(0.318595 -0.030248 0)
(0.316727 -0.0271791 0)
(0.315175 -0.0242464 0)
(0.31389 -0.0214575 0)
(0.312833 -0.0188112 0)
(0.311969 -0.0163012 0)
(0.31127 -0.0139173 0)
(0.310711 -0.0116471 0)
(0.310275 -0.00947909 0)
(0.309949 -0.00741238 0)
(0.309656 -0.0055223 0)
(0.358639 -0.0482123 0)
(0.35251 -0.0473468 0)
(0.346894 -0.0459369 0)
(0.341872 -0.044072 0)
(0.337334 -0.0418356 0)
(0.333267 -0.0393123 0)
(0.32968 -0.0365977 0)
(0.326554 -0.0337837 0)
(0.323854 -0.0309458 0)
(0.321539 -0.0281397 0)
(0.319566 -0.0254027 0)
(0.317894 -0.0227576 0)
(0.316485 -0.0202166 0)
(0.315306 -0.0177837 0)
(0.314325 -0.0154575 0)
(0.313518 -0.0132325 0)
(0.312863 -0.0111006 0)
(0.312343 -0.00905409 0)
(0.311949 -0.0070943 0)
(0.31159 -0.00529242 0)
(0.359272 -0.0424124 0)
(0.35371 -0.0418986 0)
(0.348575 -0.0408804 0)
(0.34391 -0.0394371 0)
(0.339633 -0.0376392 0)
(0.335749 -0.035559 0)
(0.332272 -0.0332783 0)
(0.329196 -0.0308769 0)
(0.326495 -0.0284215 0)
(0.324142 -0.0259627 0)
(0.322106 -0.0235368 0)
(0.320353 -0.0211678 0)
(0.318855 -0.0188702 0)
(0.317582 -0.0166517 0)
(0.31651 -0.0145144 0)
(0.315617 -0.0124564 0)
(0.314884 -0.0104731 0)
(0.314295 -0.00855969 0)
(0.313844 -0.00671949 0)
(0.313429 -0.00501895 0)
(0.359601 -0.0371839 0)
(0.354553 -0.0369265 0)
(0.349857 -0.0362107 0)
(0.345526 -0.035105 0)
(0.341506 -0.033668 0)
(0.337811 -0.03196 0)
(0.334463 -0.0300511 0)
(0.331461 -0.0280101 0)
(0.328789 -0.0258954 0)
(0.326431 -0.0237527 0)
(0.324362 -0.0216157 0)
(0.322559 -0.0195085 0)
(0.320999 -0.0174468 0)
(0.319658 -0.0154403 0)
(0.318517 -0.0134934 0)
(0.317557 -0.0116071 0)
(0.316761 -0.00977941 0)
(0.316116 -0.00800785 0)
(0.315618 -0.00629721 0)
(0.315156 -0.0047088 0)
(0.359708 -0.0324589 0)
(0.35512 -0.0323837 0)
(0.350821 -0.0318983 0)
(0.3468 -0.0310611 0)
(0.343024 -0.0299194 0)
(0.339519 -0.0285234 0)
(0.336307 -0.0269325 0)
(0.333394 -0.0252056 0)
(0.330772 -0.0233936 0)
(0.32843 -0.0215369 0)
(0.326352 -0.0196668 0)
(0.324522 -0.0178059 0)
(0.322922 -0.0159704 0)
(0.321535 -0.0141709 0)
(0.320343 -0.0124135 0)
(0.319331 -0.0107009 0)
(0.318487 -0.00903317 0)
(0.317797 -0.00740964 0)
(0.317261 -0.00583607 0)
(0.31676 -0.00436838 0)
(0.359659 -0.0281745 0)
(0.35548 -0.0282238 0)
(0.351535 -0.0279112 0)
(0.347795 -0.0272855 0)
(0.344249 -0.0263845 0)
(0.340926 -0.0252493 0)
(0.337853 -0.0239299 0)
(0.335036 -0.0224765 0)
(0.332475 -0.0209329 0)
(0.330164 -0.0193348 0)
(0.328095 -0.01771 0)
(0.326256 -0.0160799 0)
(0.324634 -0.01446 0)
(0.323215 -0.0128611 0)
(0.321987 -0.0112904 0)
(0.320938 -0.00975151 0)
(0.320056 -0.00824603 0)
(0.319331 -0.00677466 0)
(0.318766 -0.00534365 0)
(0.318234 -0.00400339 0)
(0.359507 -0.0242719 0)
(0.355688 -0.0244015 0)
(0.352055 -0.0242157 0)
(0.348568 -0.0237553 0)
(0.345231 -0.0230495 0)
(0.34208 -0.022132 0)
(0.33914 -0.0210445 0)
(0.336421 -0.0198293 0)
(0.333927 -0.0185239 0)
(0.331658 -0.0171592 0)
(0.329609 -0.0157599 0)
(0.327773 -0.0143454 0)
(0.326142 -0.0129301 0)
(0.324704 -0.0115248 0)
(0.323452 -0.0101367 0)
(0.322376 -0.0087702 0)
(0.321467 -0.0074278 0)
(0.320716 -0.00611108 0)
(0.320127 -0.00482648 0)
(0.31957 -0.00361882 0)
(0.359295 -0.0206971 0)
(0.355789 -0.0208731 0)
(0.352426 -0.0207781 0)
(0.349162 -0.0204454 0)
(0.346014 -0.0198976 0)
(0.34302 -0.0191618 0)
(0.340205 -0.0182725 0)
(0.337581 -0.0172652 0)
(0.335156 -0.0161716 0)
(0.332933 -0.015018 0)
(0.330911 -0.0138261 0)
(0.329087 -0.0126129 0)
(0.327455 -0.0113918 0)
(0.326009 -0.0101726 0)
(0.324742 -0.00896249 0)
(0.323647 -0.00776618 0)
(0.322718 -0.00658654 0)
(0.321947 -0.00542577 0)
(0.321341 -0.00429014 0)
(0.320765 -0.00321891 0)
(0.359055 -0.0174004 0)
(0.355816 -0.0175972 0)
(0.352684 -0.0175649 0)
(0.349614 -0.01733 0)
(0.346632 -0.0169098 0)
(0.343779 -0.0163259 0)
(0.341077 -0.0156067 0)
(0.338543 -0.0147816 0)
(0.336184 -0.013877 0)
(0.334008 -0.0129151 0)
(0.332016 -0.0119144 0)
(0.330208 -0.0108897 0)
(0.328582 -0.0098527 0)
(0.327134 -0.00881245 0)
(0.325859 -0.00777556 0)
(0.324753 -0.00674665 0)
(0.32381 -0.00572877 0)
(0.323025 -0.00472433 0)
(0.322405 -0.00373925 0)
(0.321815 -0.00280725 0)
(0.358811 -0.0143364 0)
(0.355796 -0.0145351 0)
(0.35286 -0.0145436 0)
(0.349954 -0.0143828 0)
(0.347115 -0.0140657 0)
(0.344384 -0.0136094 0)
(0.341783 -0.013037 0)
(0.339328 -0.0123726 0)
(0.337031 -0.0116377 0)
(0.334899 -0.0108508 0)
(0.332938 -0.0100273 0)
(0.331149 -0.00917962 0)
(0.329532 -0.00831788 0)
(0.328086 -0.00744988 0)
(0.326808 -0.00658154 0)
(0.325694 -0.00571712 0)
(0.324742 -0.00485955 0)
(0.323947 -0.00401126 0)
(0.323318 -0.00317757 0)
(0.322718 -0.00238679 0)
(0.358581 -0.0114638 0)
(0.355752 -0.0116506 0)
(0.352975 -0.0116832 0)
(0.350206 -0.0115778 0)
(0.347487 -0.0113441 0)
(0.344858 -0.0109957 0)
(0.342343 -0.0105512 0)
(0.339956 -0.0100297 0)
(0.337713 -0.00944866 0)
(0.335621 -0.00882288 0)
(0.333689 -0.00816474 0)
(0.331918 -0.00748441 0)
(0.330312 -0.00679014 0)
(0.328871 -0.00608845 0)
(0.327592 -0.00538435 0)
(0.326475 -0.00468156 0)
(0.325517 -0.00398272 0)
(0.324716 -0.00329005 0)
(0.32408 -0.0026081 0)
(0.323471 -0.00195988 0)
(0.358379 -0.00874536 0)
(0.355699 -0.00891006 0)
(0.353051 -0.0089538 0)
(0.35039 -0.00888885 0)
(0.347766 -0.00872296 0)
(0.34522 -0.00846691 0)
(0.342773 -0.00813519 0)
(0.340443 -0.00774274 0)
(0.338244 -0.00730291 0)
(0.336186 -0.00682708 0)
(0.334278 -0.00632474 0)
(0.332524 -0.00580373 0)
(0.330929 -0.00527045 0)
(0.329492 -0.00473003 0)
(0.328215 -0.00418646 0)
(0.327097 -0.00364275 0)
(0.326136 -0.00310108 0)
(0.32533 -0.00256334 0)
(0.324689 -0.00203316 0)
(0.324076 -0.00152845 0)
(0.358219 -0.00614947 0)
(0.355654 -0.00628368 0)
(0.353103 -0.00632708 0)
(0.350523 -0.00629012 0)
(0.347969 -0.00617959 0)
(0.345484 -0.0060039 0)
(0.343088 -0.00577373 0)
(0.3408 -0.00549985 0)
(0.338634 -0.00519174 0)
(0.336602 -0.00485742 0)
(0.334713 -0.00450357 0)
(0.332973 -0.00413571 0)
(0.331387 -0.00375837 0)
(0.329955 -0.00337523 0)
(0.32868 -0.00298918 0)
(0.327561 -0.00260241 0)
(0.326599 -0.00221656 0)
(0.32579 -0.00183306 0)
(0.325146 -0.00145451 0)
(0.324529 -0.00109412 0)
(0.358116 -0.00365176 0)
(0.355633 -0.00374279 0)
(0.353146 -0.00377387 0)
(0.350617 -0.00375419 0)
(0.348107 -0.00368976 0)
(0.345659 -0.00358627 0)
(0.343296 -0.00345021 0)
(0.341035 -0.003288 0)
(0.338891 -0.00310529 0)
(0.336876 -0.00290677 0)
(0.335001 -0.00269636 0)
(0.33327 -0.00247732 0)
(0.33169 -0.00225234 0)
(0.330262 -0.00202362 0)
(0.328989 -0.00179288 0)
(0.32787 -0.00156148 0)
(0.326907 -0.00133041 0)
(0.326096 -0.00110056 0)
(0.325451 -0.00087334 0)
(0.324832 -0.000658247 0)
(0.3581 -0.00117657 0)
(0.355651 -0.00123307 0)
(0.353186 -0.00125201 0)
(0.350674 -0.00124793 0)
(0.348181 -0.00122716 0)
(0.345749 -0.00119296 0)
(0.3434 -0.00114786 0)
(0.341152 -0.00109407 0)
(0.339018 -0.00103347 0)
(0.337012 -0.000967617 0)
(0.335143 -0.000897788 0)
(0.333418 -0.000825051 0)
(0.331841 -0.000750296 0)
(0.330415 -0.000674249 0)
(0.329143 -0.00059749 0)
(0.328024 -0.000520469 0)
(0.32706 -0.000443524 0)
(0.32625 -0.000366949 0)
(0.325602 -0.000291123 0)
(0.324984 -0.000220037 0)
(0.437733 0.000476616 3.67976e-21)
(0.437009 -0.0142092 0)
(0.433954 -0.0288857 -8.03653e-22)
(0.428592 -0.0432743 -2.44072e-20)
(0.421007 -0.0570652 4.72391e-20)
(0.411334 -0.069937 0)
(0.399811 -0.0815879 4.26001e-20)
(0.386549 -0.0916261 0)
(0.372614 -0.0999442 3.94469e-20)
(0.354296 -0.105877 -5.99345e-22)
(0.428871 0.000377797 -3.74994e-21)
(0.42827 -0.012337 8.61986e-22)
(0.425638 -0.0250283 -8.63536e-22)
(0.421033 -0.0374536 -2.95196e-22)
(0.414557 -0.0493642 -2.28153e-20)
(0.406334 -0.060512 -1.47272e-21)
(0.396619 -0.0706858 0)
(0.385283 -0.0795943 -4.16989e-20)
(0.373975 -0.0872751 0)
(0.356604 -0.0932508 -3.79504e-20)
(0.421239 0.000154642 7.55726e-21)
(0.42069 -0.0108038 0)
(0.418402 -0.0217523 -8.27853e-22)
(0.414424 -0.0324874 5.69715e-22)
(0.408851 -0.0428112 2.43187e-20)
(0.401783 -0.0525283 0)
(0.39349 -0.0614713 4.29841e-20)
(0.38371 -0.0694163 4.28567e-20)
(0.374467 -0.0763421 0)
(0.35916 -0.0821366 3.75579e-20)
(0.414693 3.67951e-05 -3.34237e-21)
(0.41419 -0.00940651 1.40859e-20)
(0.412193 -0.0188367 0)
(0.408746 -0.0280924 2.6007e-20)
(0.403938 -0.0370155 1.50557e-21)
(0.397856 -0.0454519 -2.93497e-21)
(0.390769 -0.0532649 -4.14456e-20)
(0.382345 -0.0603047 -1.3573e-21)
(0.374602 -0.0664896 -4.03892e-20)
(0.361278 -0.0720849 0)
(0.409062 -4.95882e-05 0)
(0.408587 -0.00821407 -1.37243e-20)
(0.40682 -0.0163644 -1.5704e-20)
(0.4038 -0.0243706 2.45491e-21)
(0.399611 -0.0321055 -1.60732e-21)
(0.394325 -0.0394484 -1.44163e-21)
(0.3882 -0.0462864 -4.23243e-20)
(0.380892 -0.0525309 -2.65977e-21)
(0.374242 -0.0580419 8.15893e-22)
(0.36276 -0.0632657 3.84008e-20)
(0.404193 -0.000109126 3.89274e-21)
(0.403741 -0.00718211 9.02054e-22)
(0.402159 -0.0142398 -1.83612e-21)
(0.399484 -0.0211774 8.55552e-22)
(0.395795 -0.0278924 -2.53629e-20)
(0.391156 -0.0342899 0)
(0.385804 -0.0402747 4.64123e-20)
(0.379427 -0.0457998 -1.37488e-21)
(0.373619 -0.0506934 8.09956e-20)
(0.363739 -0.0554633 -7.64594e-20)
(0.399968 -0.000144883 -3.91192e-21)
(0.399536 -0.00627786 -7.47784e-21)
(0.398104 -0.0123949 1.41513e-20)
(0.39571 -0.0184111 -2.53513e-20)
(0.392426 -0.0242434 -1.80497e-21)
(0.388314 -0.0298167 -2.41945e-20)
(0.383582 -0.0350508 1.38565e-21)
(0.377975 -0.0399249 -2.6894e-21)
(0.372821 -0.0442631 -3.91154e-20)
(0.364282 -0.0485608 3.80613e-20)
(0.396292 -0.000163741 0)
(0.395878 -0.00548105 1.59691e-20)
(0.39457 -0.0107828 -1.78899e-21)
(0.392404 -0.0159998 1.43354e-20)
(0.389448 -0.0210642 -1.51351e-22)
(0.385763 -0.0259161 4.70665e-20)
(0.381529 -0.0304886 -2.15167e-20)
(0.376549 -0.0347743 0)
(0.371909 -0.0386099 0)
(0.364477 -0.0424409 0)
(0.393092 -0.000170658 0)
(0.392695 -0.00477458 -1.42435e-20)
(0.391488 -0.00936411 -9.23422e-22)
(0.389508 -0.0138826 1.36438e-20)
(0.386818 -0.0182745 2.58038e-20)
(0.383478 -0.0224912 -2.58374e-20)
(0.379643 -0.0264772 2.58158e-20)
(0.375171 -0.030231 -1.39012e-21)
(0.370937 -0.0336094 0)
(0.364414 -0.0369948 1.91647e-20)
(0.39031 -0.000169162 4.89664e-22)
(0.389927 -0.00414426 8.07615e-21)
(0.388804 -0.00810673 1.27375e-20)
(0.386976 -0.0120101 -7.97975e-22)
(0.384502 -0.0158085 1.66883e-21)
(0.381441 -0.0194625 -2.61156e-20)
(0.377926 -0.0229258 2.60617e-20)
(0.373863 -0.0261986 -1.39285e-21)
(0.36995 -0.0291602 0)
(0.36417 -0.0321293 -3.80871e-20)
(0.387898 -0.000161767 0)
(0.387528 -0.00357823 7.70562e-21)
(0.386473 -0.00698418 4.30372e-23)
(0.384769 -0.0103414 0)
(0.382471 -0.0136124 0)
(0.379635 -0.0167644 2.31123e-20)
(0.376377 -0.0197593 -2.16357e-20)
(0.372642 -0.0225969 -1.32325e-21)
(0.368983 -0.0251776 6.86886e-22)
(0.363808 -0.0277623 1.95341e-20)
(0.385819 -0.000150208 0)
(0.385459 -0.0030664 -1.45522e-20)
(0.384462 -0.00597437 -1.65554e-20)
(0.382859 -0.00884295 2.59613e-21)
(0.380702 -0.0116413 -1.68693e-21)
(0.378048 -0.0143424 -1.51051e-21)
(0.374997 -0.0169149 2.90682e-21)
(0.371523 -0.0193574 1.90826e-20)
(0.368063 -0.021589 1.92144e-21)
(0.363382 -0.0238209 -6.07267e-22)
(0.384042 -0.000135679 0)
(0.383691 -0.00260009 7.79407e-21)
(0.38274 -0.00505864 -9.05673e-22)
(0.381219 -0.00748614 8.98143e-22)
(0.379177 -0.00985746 0)
(0.376668 -0.0121504 0)
(0.373783 -0.0143393 0)
(0.370516 -0.0164214 -2.17062e-20)
(0.367212 -0.018332 2.03086e-20)
(0.36293 -0.0202399 0)
(0.38254 -0.000118983 0)
(0.382196 -0.0021718 4.88837e-21)
(0.381282 -0.00422106 6.5129e-21)
(0.379828 -0.00624678 8.78849e-21)
(0.377878 -0.00822882 -1.70239e-21)
(0.375487 -0.010149 1.09754e-20)
(0.372732 -0.0119866 -1.01916e-20)
(0.369629 -0.0137381 0)
(0.366446 -0.0153517 6.93522e-22)
(0.362484 -0.0169613 -1.9358e-20)
(0.381291 -0.000100619 -1.035e-21)
(0.380953 -0.0017749 -3.94711e-21)
(0.38007 -0.00344785 -8.41375e-21)
(0.378668 -0.00510402 -6.17842e-21)
(0.376792 -0.00672769 0)
(0.374493 -0.00830429 -1.40214e-20)
(0.371842 -0.0098173 1.45833e-20)
(0.368866 -0.0112628 -1.39354e-21)
(0.365774 -0.0126 -1.00205e-20)
(0.362066 -0.0139331 2.79005e-20)
(0.380276 -8.06814e-05 1.04033e-21)
(0.379943 -0.00140345 -3.00354e-21)
(0.379083 -0.00272694 2.81115e-21)
(0.377724 -0.00403975 -7.13508e-21)
(0.375906 -0.00533006 0)
(0.373679 -0.00658662 0)
(0.371108 -0.00779666 1.42507e-21)
(0.368228 -0.0089563 -1.35772e-20)
(0.365204 -0.0100341 -8.73084e-21)
(0.361694 -0.0111091 -9.23338e-21)
(0.37948 -5.9214e-05 0)
(0.379149 -0.00105189 4.9725e-21)
(0.378308 -0.00204708 -1.8923e-21)
(0.376981 -0.00303708 6.32192e-21)
(0.375208 -0.00401362 1.72146e-21)
(0.373036 -0.00496859 -1.53378e-21)
(0.370525 -0.0058927 2.92421e-21)
(0.367717 -0.00678269 9.42729e-21)
(0.364742 -0.00761505 0)
(0.361379 -0.00844757 0)
(0.378887 -3.75067e-05 0)
(0.378558 -0.000717943 2.01026e-21)
(0.37773 -0.00140223 -3.81105e-21)
(0.376427 -0.00208582 0)
(0.374687 -0.00276368 -3.37643e-21)
(0.372555 -0.00343076 -1.5366e-21)
(0.370088 -0.00408117 -4.35286e-21)
(0.36733 -0.004713 -1.31644e-21)
(0.364388 -0.00531029 6.714e-22)
(0.361131 -0.00591327 5.85657e-22)
(0.378484 -7.88657e-06 0)
(0.378155 -0.000395043 -2.01998e-21)
(0.377336 -0.000786775 -1.89579e-21)
(0.37605 -0.00118141 2.6891e-21)
(0.374333 -0.00157663 1.64982e-21)
(0.372229 -0.00196991 1.57751e-21)
(0.369792 -0.00235806 7.26351e-21)
(0.367068 -0.00274046 -5.39163e-21)
(0.364149 -0.0031083 1.27015e-21)
(0.360962 -0.00348947 0)
(0.378251 1.7599e-05 0)
(0.377923 -4.16752e-05 1.00074e-21)
(0.377111 -0.000108089 -9.69335e-22)
(0.375837 -0.000184612 9.32554e-22)
(0.374137 -0.000273996 0)
(0.372054 -0.000379153 -1.58558e-21)
(0.369641 -0.000503207 1.43119e-21)
(0.366946 -0.000650905 1.31234e-21)
(0.36405 -0.000825012 0)
(0.36091 -0.00104491 0)
(0.33358 0.109012 0)