/*--------------------------------*- C++ -*----------------------------------*\
| =========                 |                                                 |
| \\      /  F ield         | OpenFOAM: The Open Source CFD Toolbox           |
|  \\    /   O peration     | Version:  4.1                                   |
|   \\  /    A nd           | Web:      www.OpenFOAM.org                      |
|    \\/     M anipulation  |                                                 |
\*---------------------------------------------------------------------------*/
FoamFile
{
    version     2.0;
    format      ascii;
    class       volScalarField;
    location    "10.1";
    object      p;
}
// * * * * * * * * * * * * * * * * * * * * * * * * * * * * * * * * * * * * * //

dimensions      [0 2 -2 0 0 0 0];

internalField   nonuniform List<scalar> 
2000
(
-0.0042954
0.00509117
0.014673
0.0235388
0.0305999
0.0356725
0.0393715
0.0408409
0.042579
0.0373146
-0.0227844
-0.00981249
0.00211868
0.0128502
0.0217458
0.0288934
0.0347092
0.039274
0.04346
0.0445859
-0.0462272
-0.0288584
-0.0143182
-0.00137326
0.0102082
0.0206079
0.0300499
0.0386029
0.0465797
0.053449
-0.0747968
-0.0523052
-0.0348254
-0.0187656
-0.00295332
0.0122967
0.0266097
0.0397337
0.0520262
0.0622127
-0.108233
-0.0798758
-0.0588623
-0.0379266
-0.0158141
0.00584294
0.0258801
0.0439745
0.0601136
0.0737584
-0.144831
-0.110431
-0.0845214
-0.0561976
-0.0257792
0.00333082
0.0294851
0.052421
0.0723377
0.0892526
-0.181756
-0.141775
-0.10839
-0.0700704
-0.03008
0.00676808
0.0388666
0.0663667
0.0897973
0.109913
-0.214737
-0.170243
-0.126294
-0.0760626
-0.0262583
0.0178807
0.0553717
0.0869355
0.113646
0.136786
-0.239032
-0.190819
-0.134185
-0.0713557
-0.0123778
0.0381323
0.08019
0.115177
0.144713
0.170317
-0.250349
-0.198434
-0.12844
-0.0538384
0.0129774
0.0686496
0.114302
0.151943
0.183643
0.210838
0.0720644
0.066041
0.0626785
0.0592526
0.0552797
0.0508889
0.0461833
0.0412062
0.0358829
0.0299912
0.0692416
0.0637175
0.0605823
0.0572761
0.0534045
0.0491191
0.0445377
0.039753
0.0347308
0.0289456
0.0640819
0.0595459
0.0568489
0.0538511
0.0502696
0.0462814
0.0420268
0.0376607
0.0332651
0.0279271
0.0574675
0.0542411
0.052248
0.0498398
0.0468368
0.0434375
0.0398041
0.0361046
0.0326331
0.028666
0.0502775
0.0485055
0.0475113
0.046042
0.0439655
0.0414811
0.0387837
0.0359877
0.0336333
0.0318902
0.0431129
0.0428047
0.0431019
0.0429366
0.0421191
0.0408032
0.0392186
0.037533
0.0363559
0.0374768
0.0361063
0.0372621
0.0390766
0.0405325
0.0412401
0.0412289
0.0407791
0.0401628
0.0392811
0.0449584
0.02885
0.0315396
0.0350711
0.0383726
0.0407425
0.0420691
0.0426995
0.0430805
0.0413906
0.0510849
0.0204625
0.024912
0.0303213
0.0355324
0.0395528
0.0421015
0.0435791
0.0446757
0.0429206
0.0523129
0.00980812
0.0164087
0.0238327
0.030909
0.0364421
0.0401414
0.042533
0.0434889
0.0432559
0.0459105
0.0234762
0.0167697
0.00966957
0.00224759
-0.00538631
-0.0130955
-0.0207044
-0.0279999
-0.0347362
-0.0406399
-0.0454071
-0.0487072
-0.050203
-0.0496124
-0.046798
-0.0416849
-0.0339002
-0.0231258
-0.0108586
-0.00222753
0.021698
0.0149481
0.00779322
0.000249309
-0.00755081
-0.0154687
-0.023327
-0.0309068
-0.037951
-0.0441736
-0.0492706
-0.0529076
-0.0547303
-0.0543948
-0.0516534
-0.0464199
-0.0384559
-0.0274854
-0.014594
-0.00384715
0.0193535
0.0125451
0.00532905
-0.00242614
-0.0105205
-0.0188058
-0.0271048
-0.0351929
-0.0428016
-0.0496229
-0.0553217
-0.0595566
-0.0619641
-0.0621627
-0.0597831
-0.0544766
-0.0462139
-0.0347878
-0.020789
-0.00660444
0.017852
0.0111975
0.00395776
-0.00404464
-0.0124905
-0.0212102
-0.0300289
-0.0387202
-0.0470106
-0.0545798
-0.0610642
-0.0660731
-0.0692193
-0.0701084
-0.0682826
-0.0633073
-0.0547961
-0.0427544
-0.0273472
-0.00949241
0.0189707
0.0116868
0.00458168
-0.00352407
-0.0123033
-0.021447
-0.0307496
-0.0399983
-0.0489268
-0.05721
-0.0644716
-0.0702918
-0.0742245
-0.0758303
-0.0746394
-0.0701409
-0.0615802
-0.0491021
-0.0326369
-0.0122039
0.0223235
0.0137318
0.00697359
-0.000920193
-0.00992769
-0.0194367
-0.0291136
-0.0387743
-0.0481865
-0.0570237
-0.0648949
-0.0713654
-0.075966
-0.0782059
-0.0775758
-0.0734794
-0.0653427
-0.052614
-0.0354087
-0.0133332
0.0266249
0.0162669
0.0101985
0.00296516
-0.00609065
-0.015863
-0.0257496
-0.0356264
-0.0453318
-0.0545313
-0.0628083
-0.0697126
-0.0747658
-0.0774564
-0.0772536
-0.0735442
-0.0657604
-0.0531806
-0.0358561
-0.0134219
0.0305322
0.0183923
0.0133763
0.00714252
-0.00179261
-0.0116195
-0.0214542
-0.0313033
-0.041078
-0.0504101
-0.0588586
-0.0659674
-0.0712638
-0.0742188
-0.0742854
-0.0708474
-0.0634312
-0.0512727
-0.0344379
-0.0127166
0.0323861
0.0206129
0.017284
0.0117933
0.00300108
-0.00655544
-0.0161257
-0.025888
-0.0356744
-0.0450162
-0.0534644
-0.0605724
-0.0659002
-0.0689267
-0.0692925
-0.066246
-0.0592095
-0.0477025
-0.0318763
-0.0116826
0.0283759
0.0226949
0.0211173
0.0154218
0.00762535
-0.000453425
-0.00900693
-0.0181936
-0.0276135
-0.036722
-0.0450734
-0.0522106
-0.0576929
-0.0609703
-0.0616153
-0.059028
-0.0527368
-0.0425173
-0.0284196
-0.0104865
0.0366438
0.035031
0.0278287
0.0194476
0.0114543
0.00345714
-0.00503448
-0.0139568
-0.022924
-0.0314897
-0.0392598
-0.0458084
-0.0507234
-0.0535828
-0.0539842
-0.0514896
-0.045802
-0.036772
-0.0243747
-0.00905573
0.0368166
0.0338356
0.0272982
0.0199982
0.0128186
0.00541141
-0.00247522
-0.0106727
-0.0188094
-0.0264972
-0.0333871
-0.0391208
-0.0433049
-0.0456173
-0.0457188
-0.0433666
-0.0382715
-0.0304826
-0.0199132
-0.00731852
0.0418466
0.035674
0.0296634
0.0234514
0.0168111
0.00964418
0.00206558
-0.00564321
-0.0131419
-0.0201244
-0.0262789
-0.0313394
-0.0350599
-0.0371242
-0.037208
-0.0351949
-0.0308886
-0.0244735
-0.0158537
-0.00582985
0.0493887
0.0406881
0.0343877
0.0285612
0.0221463
0.0150575
0.00762964
0.000233204
-0.00681843
-0.0132953
-0.0189549
-0.0236188
-0.0270582
-0.0290475
-0.0292818
-0.0277653
-0.0243534
-0.0192825
-0.0124699
-0.00460643
0.0582824
0.0479838
0.0407031
0.0345293
0.0280394
0.0209504
0.0135982
0.00638306
-0.000392116
-0.00654965
-0.0119105
-0.0163471
-0.0196408
-0.0216509
-0.0221736
-0.0212406
-0.0187334
-0.0148887
-0.00964641
-0.00357021
0.0681769
0.0565813
0.0480263
0.0411026
0.0343149
0.0271438
0.0197979
0.0126506
0.00600118
1.58592e-06
-0.00520995
-0.00954407
-0.0128315
-0.0150011
-0.0158998
-0.0155685
-0.0139152
-0.0111614
-0.00727124
-0.00270492
0.0783456
0.0656474
0.055894
0.0481101
0.0408787
0.0335243
0.0261053
0.0189306
0.0122889
0.00632
0.00113434
-0.00322191
-0.00662414
-0.00904094
-0.0103515
-0.0106098
-0.00974728
-0.00796968
-0.00525398
-0.0019846
0.0882109
0.0747487
0.0640235
0.0553987
0.0476319
0.0399945
0.0324229
0.0251459
0.0184254
0.0123884
0.00712421
0.00265251
-0.000942112
-0.00365507
-0.00539247
-0.00622411
-0.00609485
-0.00519987
-0.0035147
-0.00137622
0.0976512
0.0837152
0.0722191
0.0628108
0.0544634
0.0464682
0.0386782
0.0312407
0.0243796
0.0182043
0.0127905
0.00813332
0.0042961
0.00125507
-0.000916368
-0.00230375
-0.00285512
-0.00276326
-0.00199111
-0.000853154
0.106683
0.0924221
0.0802976
0.0701803
0.0612511
0.0528576
0.044803
0.0371631
0.030118
0.0237558
0.0181415
0.0132547
0.00914167
0.00575227
0.00314796
0.00122713
4.5265e-05
-0.000595883
-0.000639567
-0.000396605
0.115234
0.100729
0.0880922
0.0773531
0.0678731
0.0590698
0.0507242
0.0428553
0.0355972
0.029016
0.023171
0.0180274
0.0136188
0.00987301
0.00684607
0.00441911
0.00265518
0.00134473
0.000568175
5.96463e-06
0.123177
0.10851
0.0954707
0.0841999
0.074215
0.0650101
0.0563634
0.0482508
0.0407693
0.0339508
0.0278592
0.0224443
0.0177329
0.0136343
0.0102027
0.00730132
0.00500303
0.00308372
0.00164864
0.000362536
0.130413
0.11567
0.102328
0.0906082
0.0801688
0.0705826
0.0616373
0.0532758
0.0455636
0.0385105
0.0321711
0.0264839
0.0214744
0.0170367
0.0132249
0.00988549
0.0071014
0.0046334
0.00261004
0.000678127
0.136882
0.122134
0.10857
0.0964729
0.0856292
0.075691
0.066462
0.0578561
0.0499207
0.0426411
0.0360633
0.030115
0.0248222
0.0200678
0.0159065
0.0121707
0.00895167
0.00599717
0.00345478
0.000955789
0.142534
0.127829
0.114105
0.101695
0.0904971
0.0802426
0.0707531
0.0619163
0.0537794
0.0462896
0.0394897
0.0333002
0.027748
0.0227076
0.0182335
0.0141484
0.0105483
0.00717276
0.00418152
0.00119705
0.147318
0.132687
0.118852
0.106183
0.0946836
0.0841551
0.0744419
0.0654298
0.0570873
0.0494047
0.0424054
0.0360027
0.0302223
0.0249336
0.0201895
0.0158071
0.0118834
0.00815547
0.00478738
0.00140214
0.151189
0.136645
0.122734
0.109857
0.0981086
0.0873528
0.0774507
0.0682676
0.0597775
0.0519377
0.044772
0.0381915
0.0322207
0.0267275
0.0217609
0.0171376
0.0129508
0.00894136
0.0052703
0.00157033
0.154127
0.139658
0.125687
0.112646
0.100704
0.0897743
0.079728
0.0704207
0.0618165
0.0538565
0.0465613
0.0398435
0.0337258
0.0280764
0.0229395
0.0181343
0.0137478
0.00952858
0.00562976
0.00169965
0.15618
0.141744
0.127707
0.114534
0.102448
0.0913958
0.0812513
0.071862
0.0631818
0.055141
0.0477571
0.0409464
0.034729
0.0289748
0.0237228
0.0187964
0.0142754
0.0099181
0.00586644
0.00178773
0.157371
0.142932
0.128819
0.115542
0.10336
0.0922338
0.0820343
0.0726017
0.0638773
0.0557905
0.0483587
0.0415013
0.0352319
0.029426
0.0241138
0.0191288
0.0145373
0.0101146
0.00598219
0.0018355
0.232318
0.191461
0.156686
0.127804
0.104609
0.0862474
0.0717981
0.0594523
0.0496836
0.0323196
0.249772
0.209663
0.175089
0.145442
0.120755
0.0994462
0.0823212
0.0647686
0.0538175
0.0358523
0.265321
0.226393
0.192615
0.162693
0.137366
0.113772
0.0953186
0.0752623
0.06459
0.0476939
0.279086
0.241324
0.208361
0.178281
0.152834
0.128224
0.109686
0.0894771
0.0775733
0.0599326
0.291217
0.25449
0.222245
0.19221
0.166903
0.142149
0.123366
0.102934
0.0886137
0.0704326
0.301913
0.266163
0.234597
0.204852
0.179688
0.15498
0.135391
0.11453
0.0987276
0.0808617
0.311384
0.276596
0.245679
0.216364
0.191246
0.166606
0.146326
0.125505
0.109331
0.0916681
0.319811
0.285958
0.255643
0.22681
0.201744
0.177324
0.156827
0.13632
0.119968
0.102134
0.327332
0.294357
0.264606
0.236285
0.211378
0.187309
0.166833
0.146518
0.129884
0.111931
0.334045
0.301879
0.27267
0.244875
0.220213
0.196496
0.176056
0.155832
0.138995
0.121174
0.340023
0.308594
0.279905
0.252623
0.22823
0.204824
0.184427
0.164363
0.147457
0.129905
0.34531
0.314551
0.28635
0.259552
0.235425
0.212328
0.192015
0.172201
0.155272
0.138003
0.349937
0.319789
0.292034
0.265691
0.241821
0.219051
0.198843
0.179311
0.162341
0.145342
0.353924
0.324334
0.296979
0.271065
0.247436
0.224999
0.204888
0.185625
0.168601
0.15186
0.357286
0.328207
0.301207
0.275691
0.25228
0.230159
0.210124
0.191106
0.174032
0.157521
0.360035
0.331418
0.304732
0.279575
0.256354
0.234519
0.214549
0.195743
0.17862
0.162291
0.362186
0.333977
0.307564
0.282721
0.259669
0.238077
0.218166
0.199527
0.182357
0.166137
0.363747
0.335894
0.309723
0.285144
0.262247
0.240853
0.220999
0.20247
0.185251
0.169061
0.364712
0.337157
0.311201
0.286845
0.264098
0.242867
0.223078
0.204621
0.187362
0.171135
0.365008
0.337669
0.31187
0.287676
0.265061
0.24396
0.224249
0.205856
0.188601
0.172341
0.856788
0.859649
0.854214
0.84139
0.822002
0.795316
0.75811
0.705395
0.637027
0.593376
0.799908
0.797881
0.783036
0.762066
0.735873
0.701863
0.655716
0.592214
0.511327
0.458134
0.738106
0.729382
0.706926
0.679418
0.646946
0.605702
0.550888
0.477341
0.385015
0.323681
0.667103
0.653142
0.626135
0.59417
0.556487
0.508752
0.446195
0.36407
0.261924
0.194888
0.592098
0.573951
0.543815
0.508514
0.466539
0.413315
0.344259
0.255597
0.146031
0.0771793
0.51766
0.495711
0.463122
0.425201
0.379789
0.322203
0.247972
0.154503
0.0433025
-0.0256914
0.446045
0.420746
0.386445
0.346715
0.298904
0.238332
0.160819
0.0647163
-0.0428526
-0.110928
0.378577
0.350666
0.315632
0.275067
0.226106
0.164079
0.0856931
-0.00960474
-0.111237
-0.176416
0.316313
0.286842
0.252401
0.212037
0.162728
0.101154
0.024436
-0.0668687
-0.160233
-0.221094
0.259091
0.230995
0.197728
0.158264
0.110118
0.0507008
-0.0221134
-0.106433
-0.189051
-0.245225
1.17857
1.19493
1.21311
1.23313
1.25492
1.27826
1.30243
1.32549
1.34547
1.36907
1.17498
1.19048
1.208
1.22728
1.24817
1.27038
1.29319
1.31458
1.33258
1.35485
1.16747
1.18126
1.19745
1.21531
1.2344
1.25439
1.27447
1.29251
1.30672
1.32614
1.15541
1.16665
1.18091
1.19668
1.21314
1.22987
1.24592
1.25902
1.26767
1.28278
1.13797
1.14588
1.15767
1.17075
1.18382
1.19631
1.20714
1.2138
1.21514
1.22461
1.11427
1.11807
1.12688
1.13677
1.14577
1.15317
1.1577
1.1566
1.14901
1.1516
1.08351
1.0826
1.08811
1.09439
1.0987
1.10019
1.09746
1.08738
1.06941
1.06405
1.04431
1.03813
1.04045
1.04308
1.0423
1.03729
1.02652
1.00651
0.976888
0.962742
0.996382
0.985168
0.984913
0.983474
0.97688
0.964769
0.945426
0.914812
0.872597
0.84904
0.933559
0.923066
0.922302
0.916338
0.903331
0.883753
0.855445
0.813787
0.758482
0.724939
1.00269
1.00822
1.01439
1.0209
1.02746
1.03406
1.04079
1.04771
1.05488
1.06233
1.07011
1.07822
1.08673
1.09572
1.10524
1.11538
1.12623
1.13787
1.15041
1.16393
1.00269
1.00825
1.01442
1.02088
1.02739
1.03395
1.04063
1.04751
1.05462
1.06201
1.0697
1.07772
1.08611
1.09495
1.10431
1.11425
1.12484
1.13617
1.1483
1.16132
1.00272
1.00831
1.01441
1.02078
1.02721
1.03369
1.04029
1.04707
1.05406
1.06132
1.06883
1.07663
1.08477
1.09332
1.10232
1.11182
1.12188
1.13254
1.14382
1.15579
1.00276
1.00835
1.01434
1.02058
1.02687
1.03322
1.03966
1.04627
1.05307
1.06011
1.06734
1.07479
1.08253
1.0906
1.09902
1.10781
1.11699
1.12658
1.13648
1.14673
1.00278
1.00836
1.0142
1.02023
1.02633
1.03249
1.03874
1.04512
1.05167
1.05828
1.06504
1.072
1.07916
1.08652
1.09408
1.10183
1.10972
1.11772
1.12561
1.13335
1.00278
1.00831
1.01393
1.01967
1.02549
1.03137
1.03731
1.04336
1.04948
1.05559
1.06177
1.06805
1.07441
1.08079
1.08716
1.09345
1.09956
1.10537
1.1105
1.11476
1.0027
1.00813
1.01348
1.01886
1.02431
1.02983
1.03543
1.04104
1.0465
1.05193
1.05737
1.06276
1.06805
1.07313
1.07792
1.08226
1.08599
1.08883
1.09036
1.08999
1.00255
1.00773
1.01271
1.01764
1.0227
1.02786
1.0329
1.03775
1.04251
1.04718
1.0517
1.05597
1.05989
1.06331
1.0661
1.06797
1.06873
1.06777
1.06469
1.05819
1.00231
1.00706
1.01167
1.01622
1.02071
1.02513
1.02947
1.03366
1.03766
1.04138
1.04476
1.04764
1.0499
1.05123
1.05151
1.05016
1.04724
1.0416
1.03354
1.01948
1.00214
1.00614
1.01002
1.01396
1.01792
1.02179
1.02547
1.02886
1.0319
1.03446
1.03644
1.0376
1.03785
1.03666
1.03408
1.02889
1.02158
1.00888
0.993374
0.966683
1.00152
1.00486
1.00812
1.01137
1.01462
1.01771
1.0205
1.02286
1.02472
1.02592
1.02635
1.02569
1.02381
1.02
1.01428
1.005
0.992636
0.972769
0.946923
0.901334
1.00121
1.00348
1.00578
1.00836
1.01098
1.01333
1.01522
1.01653
1.01723
1.0171
1.01607
1.0137
1.00992
1.0039
0.995733
0.983635
0.968232
0.945655
0.918425
0.880317
1.00118
1.00207
1.00315
1.00502
1.00705
1.00868
1.00968
1.00995
1.00948
1.00807
1.00563
1.0017
0.996249
0.988393
0.978346
0.964378
0.947405
0.92422
0.897775
0.862518
1.00041
1.00055
1.00073
1.00179
1.00317
1.00406
1.00415
1.00334
1.0017
0.999018
0.995246
0.989868
0.982912
0.973481
0.961918
0.946564
0.928597
0.904975
0.878907
0.844678
0.999932
0.998968
0.997972
0.99834
0.999234
0.99949
0.998681
0.996787
0.993985
0.990086
0.985057
0.978349
0.970049
0.959261
0.946458
0.930015
0.9113
0.887305
0.861479
0.828276
1.00044
0.99752
0.994834
0.994682
0.995354
0.995091
0.993398
0.990407
0.986457
0.981393
0.975188
0.967264
0.957764
0.945804
0.931967
0.914661
0.895373
0.871194
0.845665
0.813562
0.999434
0.995815
0.992302
0.991723
0.992109
0.991223
0.988524
0.984359
0.979255
0.973072
0.965764
0.956719
0.946135
0.933156
0.918444
0.900462
0.88075
0.856558
0.831345
0.800267
0.999944
0.994879
0.990506
0.98985
0.989986
0.988228
0.984245
0.97876
0.972487
0.965232
0.956881
0.946792
0.935213
0.921342
0.905881
0.887377
0.867348
0.84325
0.818328
0.788188
0.998427
0.992583
0.988874
0.989216
0.989371
0.986413
0.98074
0.973751
0.966294
0.958006
0.948644
0.937559
0.925049
0.910388
0.894276
0.875368
0.855092
0.831154
0.806488
0.777222
0.998436
0.989789
0.986291
0.98896
0.989615
0.985151
0.977566
0.969123
0.960612
0.95138
0.941052
0.929028
0.915655
0.9003
0.883621
0.864403
0.843929
0.820192
0.795749
0.767301
1.00269
0.994545
0.992572
0.994847
0.992554
0.984696
0.974771
0.965009
0.955578
0.945439
0.93415
0.921225
0.907052
0.891093
0.873921
0.854468
0.833829
0.810318
0.786067
0.758373
0.993914
1.00281
1.01559
1.01373
1.00135
0.986385
0.973166
0.961997
0.951583
0.940426
0.92809
0.914256
0.89932
0.882822
0.86521
0.845573
0.824792
0.801508
0.77742
0.750396
0.99845
1.01916
1.03715
1.02956
1.0083
0.987245
0.971318
0.959124
0.947948
0.935895
0.922608
0.907972
0.892381
0.875441
0.857463
0.837689
0.816797
0.793728
0.769788
0.743335
1.0012
1.02795
1.04777
1.03687
1.01066
0.986164
0.96878
0.956072
0.944393
0.931656
0.917611
0.902343
0.88623
0.868944
0.850671
0.830797
0.809822
0.786948
0.763144
0.737165
1.00212
1.03123
1.05117
1.03773
1.00891
0.983124
0.965485
0.952695
0.940702
0.927506
0.912964
0.897289
0.880809
0.86327
0.844763
0.824828
0.8038
0.781108
0.75743
0.731857
0.998219
1.02616
1.04785
1.03471
1.00548
0.979716
0.962043
0.949074
0.936796
0.923338
0.9086
0.892781
0.876097
0.858386
0.839701
0.81974
0.798686
0.776177
0.752609
0.7274
0.98309
0.989764
1.01037
1.01032
0.995659
0.977297
0.960723
0.946441
0.93309
0.919347
0.904724
0.888998
0.872233
0.854408
0.835587
0.815614
0.794552
0.772208
0.748736
0.723832
0.998957
0.964678
0.943134
0.953902
0.967975
0.968473
0.957522
0.942946
0.928876
0.915397
0.901266
0.885839
0.869138
0.851298
0.832421
0.812465
0.791423
0.769216
0.74585
0.721173
1.00099
0.965518
0.938182
0.945442
0.960529
0.963261
0.954324
0.940941
0.927131
0.913438
0.899153
0.883729
0.867062
0.849242
0.830347
0.810398
0.789373
0.767252
0.743981
0.719473
0.983133
0.990053
1.00533
0.996592
0.977713
0.962613
0.951371
0.94008
0.927295
0.913284
0.898428
0.882735
0.866026
0.848224
0.829327
0.809378
0.788355
0.766275
0.743064
0.71869
0.849181
0.789178
0.728848
0.663268
0.593272
0.523624
0.45677
0.393268
0.333845
0.279613
0.840672
0.779207
0.715777
0.653592
0.588485
0.522862
0.460034
0.400561
0.345243
0.295069
0.826614
0.768122
0.704144
0.644646
0.584793
0.52353
0.464259
0.408329
0.356479
0.308739
0.811675
0.757699
0.694912
0.636824
0.581038
0.524003
0.468029
0.415044
0.366011
0.320581
0.797352
0.747501
0.68697
0.630054
0.577311
0.524221
0.471479
0.421053
0.374407
0.33098
0.783979
0.737624
0.679941
0.624417
0.573914
0.524202
0.474556
0.426482
0.381862
0.340163
0.771591
0.72817
0.673528
0.619686
0.570938
0.523989
0.477205
0.431362
0.388514
0.348314
0.760168
0.719227
0.667597
0.61567
0.568435
0.523703
0.479454
0.435726
0.394474
0.355595
0.749676
0.710832
0.662078
0.612206
0.566383
0.523438
0.481357
0.439589
0.399812
0.362118
0.740073
0.702997
0.656931
0.609177
0.564733
0.523252
0.482978
0.442979
0.404567
0.367956
0.731336
0.695734
0.652138
0.606495
0.563416
0.523167
0.484371
0.445921
0.408764
0.373152
0.723461
0.689072
0.64769
0.604085
0.562353
0.52317
0.485571
0.448442
0.412419
0.377732
0.716461
0.683048
0.64359
0.601884
0.561458
0.523223
0.486591
0.450568
0.415547
0.381713
0.710335
0.677684
0.639842
0.599845
0.560658
0.52328
0.487436
0.452321
0.418167
0.385109
0.705038
0.672956
0.636444
0.597946
0.559902
0.523301
0.488103
0.453722
0.420298
0.387935
0.700533
0.668857
0.633424
0.596207
0.559182
0.523266
0.488589
0.454785
0.421958
0.390202
0.696879
0.665461
0.630858
0.594675
0.558496
0.523153
0.488886
0.455526
0.423169
0.39193
0.694149
0.662854
0.628798
0.593344
0.557794
0.522893
0.488947
0.455931
0.42394
0.393061
0.692423
0.661139
0.627325
0.592232
0.557019
0.522386
0.488663
0.455914
0.424245
0.393783
0.691691
0.660416
0.626642
0.591586
0.5564
0.521804
0.488139
0.455507
0.423997
0.393744
)
;

boundaryField
{
    bottom
    {
        type            symmetryPlane;
    }
    right
    {
        type            fixedValue;
        value           uniform 0;
    }
    top
    {
        type            symmetryPlane;
    }
    left
    {
        type            fixedValue;
        value           uniform 1;
    }
    cylinder
    {
        type            zeroGradient;
    }
    defaultFaces
    {
        type            empty;
    }
}


// ************************************************************************* //
