/*--------------------------------*- C++ -*----------------------------------*\
| =========                 |                                                 |
| \\      /  F ield         | OpenFOAM: The Open Source CFD Toolbox           |
|  \\    /   O peration     | Version:  4.1                                   |
|   \\  /    A nd           | Web:      www.OpenFOAM.org                      |
|    \\/     M anipulation  |                                                 |
\*---------------------------------------------------------------------------*/
FoamFile
{
    version     2.0;
    format      ascii;
    class       volScalarField;
    location    "14.9";
    object      p;
}
// * * * * * * * * * * * * * * * * * * * * * * * * * * * * * * * * * * * * * //

dimensions      [0 2 -2 0 0 0 0];

internalField   nonuniform List<scalar> 
2000
(
-0.151862
-0.141358
-0.13194
-0.123217
-0.115313
-0.107991
-0.100656
-0.0939969
-0.086018
-0.0828073
-0.171122
-0.156889
-0.145044
-0.134165
-0.123958
-0.114174
-0.104575
-0.0953567
-0.0858143
-0.0790071
-0.194322
-0.17578
-0.161241
-0.147661
-0.134189
-0.120885
-0.107908
-0.0955084
-0.0834668
-0.0727803
-0.221357
-0.197948
-0.180288
-0.162933
-0.144779
-0.126717
-0.109481
-0.0934397
-0.0783313
-0.0653413
-0.251156
-0.222608
-0.20101
-0.17819
-0.153749
-0.129879
-0.10783
-0.0878688
-0.0699058
-0.0543003
-0.281715
-0.24812
-0.221028
-0.190714
-0.158667
-0.128424
-0.101394
-0.07762
-0.0567705
-0.0385987
-0.309826
-0.271791
-0.23698
-0.197353
-0.157072
-0.120478
-0.0886982
-0.0613505
-0.0377657
-0.0170248
-0.331508
-0.289806
-0.245194
-0.195184
-0.146808
-0.104383
-0.068362
-0.0378474
-0.0116803
0.011476
-0.342719
-0.29776
-0.242246
-0.181855
-0.126166
-0.0787639
-0.0392128
-0.00604503
0.0223792
0.0474784
-0.339951
-0.291696
-0.225262
-0.155654
-0.0939485
-0.0426343
-0.000386154
0.0348214
0.0650314
0.0913804
-0.072191
-0.0759898
-0.077308
-0.0779024
-0.0780953
-0.0778275
-0.0770736
-0.0758492
-0.0742355
-0.0724388
-0.0740912
-0.0776484
-0.0788269
-0.0793418
-0.0794701
-0.0791329
-0.0782898
-0.0769266
-0.0750878
-0.0731446
-0.0777498
-0.0807961
-0.0817142
-0.0820516
-0.0820299
-0.0815379
-0.0805048
-0.0788795
-0.0765748
-0.0740447
-0.0828638
-0.085172
-0.0856783
-0.0857105
-0.0854312
-0.0846838
-0.0833493
-0.0813705
-0.0783816
-0.0736992
-0.0891065
-0.0904806
-0.0903852
-0.0899405
-0.0892656
-0.0881587
-0.0864088
-0.0838628
-0.0799604
-0.0741967
-0.0962251
-0.0964792
-0.0955376
-0.0943847
-0.0931277
-0.0915334
-0.0892939
-0.0861506
-0.0814401
-0.0728264
-0.104155
-0.103064
-0.100982
-0.0988311
-0.0967275
-0.094455
-0.0915877
-0.0877493
-0.0830372
-0.0706662
-0.113135
-0.110306
-0.106844
-0.103362
-0.100119
-0.0969382
-0.0932919
-0.0885746
-0.0843471
-0.0695893
-0.12357
-0.118707
-0.113508
-0.10843
-0.103839
-0.099548
-0.0949613
-0.0895129
-0.0848581
-0.071004
-0.136221
-0.128831
-0.121627
-0.114805
-0.108686
-0.103081
-0.0973141
-0.0915565
-0.0853409
-0.0764955
-0.0706289
-0.0683663
-0.0658206
-0.063042
-0.0600353
-0.0568146
-0.0533963
-0.0497978
-0.0460516
-0.0421784
-0.0381944
-0.0341232
-0.0299922
-0.0258309
-0.0216705
-0.0175423
-0.0134773
-0.00949778
-0.00560466
-0.00181473
-0.0717271
-0.0693821
-0.0667322
-0.0638861
-0.0608183
-0.0575356
-0.0540506
-0.0503786
-0.0465838
-0.0426477
-0.0385928
-0.0344449
-0.0302323
-0.0259865
-0.0217425
-0.0175374
-0.0134094
-0.00938646
-0.00547633
-0.00173422
-0.0737089
-0.0711301
-0.0683304
-0.0653837
-0.0622168
-0.0588316
-0.0552423
-0.0515013
-0.0475754
-0.043506
-0.0393162
-0.0350275
-0.0306676
-0.0262701
-0.0218754
-0.0175299
-0.0132849
-0.00918235
-0.00524121
-0.00157371
-0.0775197
-0.0729484
-0.0701853
-0.0671881
-0.0638876
-0.0603483
-0.0566853
-0.0528228
-0.0487607
-0.0445482
-0.0402023
-0.0357443
-0.0312042
-0.0266201
-0.0220386
-0.0175165
-0.013121
-0.00891673
-0.00494314
-0.00135526
-0.0785028
-0.0759479
-0.0722835
-0.0688955
-0.0655732
-0.062065
-0.0582468
-0.054204
-0.0499933
-0.0456237
-0.0411069
-0.0364673
-0.0317382
-0.0269617
-0.0221906
-0.0174913
-0.0129443
-0.00864211
-0.00466279
-0.00117578
-0.0801923
-0.0786431
-0.0742786
-0.0705454
-0.0671248
-0.0634888
-0.0595628
-0.0554088
-0.0510673
-0.0465513
-0.041875
-0.0370659
-0.0321625
-0.0272137
-0.0222786
-0.0174338
-0.012769
-0.00840203
-0.00445002
-0.00105225
-0.0808468
-0.0813396
-0.0762112
-0.0715997
-0.0680455
-0.0644917
-0.0605281
-0.0562593
-0.0517993
-0.0471663
-0.0423626
-0.0374177
-0.032377
-0.0272994
-0.0222487
-0.0173153
-0.012591
-0.00821632
-0.00432511
-0.00103152
-0.0812509
-0.0831546
-0.0776008
-0.0723854
-0.0687174
-0.0651338
-0.0610573
-0.0566654
-0.0521072
-0.0473836
-0.0424852
-0.0374484
-0.0323239
-0.0271804
-0.0220799
-0.0171297
-0.0124105
-0.00809079
-0.00427191
-0.00110678
-0.0816876
-0.0831266
-0.0771481
-0.0719853
-0.0684055
-0.0647319
-0.0605824
-0.0562111
-0.0517004
-0.0470092
-0.0421293
-0.0371135
-0.0320123
-0.0269063
-0.0218474
-0.0169648
-0.0123102
-0.00808883
-0.00431942
-0.00125112
-0.0848247
-0.0824815
-0.0764217
-0.0718975
-0.0680153
-0.0638354
-0.0594853
-0.0551228
-0.0506742
-0.0460679
-0.0412971
-0.036415
-0.0314542
-0.0265009
-0.021588
-0.0168629
-0.0123388
-0.00824845
-0.00451679
-0.00145057
-0.0739151
-0.0713597
-0.0695826
-0.0671821
-0.063919
-0.0601961
-0.0563202
-0.0523397
-0.0481919
-0.0438617
-0.0393627
-0.0347575
-0.0300737
-0.0254067
-0.020774
-0.0163303
-0.0120538
-0.00818392
-0.00457553
-0.00156465
-0.0690423
-0.0670965
-0.0649937
-0.0622448
-0.0589962
-0.055564
-0.0520552
-0.0484244
-0.044615
-0.0406349
-0.0365018
-0.0322769
-0.02798
-0.0237027
-0.0194508
-0.0153712
-0.0114219
-0.00782995
-0.00441845
-0.001542
-0.0602987
-0.0604716
-0.0585922
-0.0557629
-0.0528034
-0.0499142
-0.0469797
-0.0438731
-0.0405426
-0.0370201
-0.0333369
-0.0295578
-0.0257003
-0.0218509
-0.0180104
-0.0143124
-0.0107105
-0.0074052
-0.00422814
-0.00148863
-0.0497998
-0.0521754
-0.0511816
-0.0487528
-0.0462594
-0.0439702
-0.0416629
-0.0391391
-0.0363365
-0.033305
-0.0300928
-0.0267723
-0.0233617
-0.0199416
-0.0165105
-0.0131885
-0.00993146
-0.00691218
-0.00398345
-0.00139814
-0.0386477
-0.0426718
-0.04294
-0.0413389
-0.0394762
-0.0378039
-0.0361284
-0.034214
-0.0319732
-0.0294595
-0.026735
-0.0238827
-0.0209235
-0.0179346
-0.0149118
-0.0119658
-0.0090539
-0.00633156
-0.00366744
-0.00128416
-0.0269252
-0.0323572
-0.0340723
-0.0335531
-0.0324521
-0.0314257
-0.0303876
-0.0291029
-0.0274549
-0.0254878
-0.0232705
-0.0208983
-0.0183962
-0.0158426
-0.0132286
-0.0106627
-0.00809814
-0.00568844
-0.00330415
-0.00116847
-0.0148813
-0.0217165
-0.024864
-0.0254846
-0.0252218
-0.0248843
-0.0245002
-0.0238596
-0.0228247
-0.0214258
-0.0197319
-0.0178501
-0.0158097
-0.0136946
-0.0114899
-0.00930814
-0.00709296
-0.00500896
-0.00291447
-0.00105639
-0.00300934
-0.0110967
-0.0155138
-0.0172336
-0.0178502
-0.0182471
-0.0185381
-0.018549
-0.0181351
-0.0173156
-0.0161556
-0.0147712
-0.0131952
-0.0115197
-0.00972352
-0.00792721
-0.0060626
-0.00431072
-0.00251155
-0.000944971
0.0084319
-0.000665543
-0.00617051
-0.00893135
-0.0104502
-0.0116162
-0.0125955
-0.0132542
-0.013456
-0.0132152
-0.0125914
-0.0117052
-0.0105921
-0.00935202
-0.00796083
-0.00654558
-0.00503003
-0.0036078
-0.00210584
-0.000828762
0.0192709
0.00945259
0.00301014
-0.000747543
-0.0031803
-0.00513065
-0.00679402
-0.00808113
-0.00887841
-0.00920136
-0.00910441
-0.00870709
-0.00804802
-0.00723128
-0.00623562
-0.00518912
-0.00401666
-0.00291211
-0.00170536
-0.000701661
0.0293225
0.0190817
0.0118552
0.00713356
0.00378486
0.00105818
-0.00126306
-0.00314197
-0.00449969
-0.00535694
-0.00576415
-0.00583428
-0.00561046
-0.00519586
-0.00457896
-0.00388098
-0.00303988
-0.00223339
-0.00131544
-0.000560263
0.0384129
0.0280429
0.0201736
0.0145325
0.0102899
0.00682028
0.00388753
0.00146794
-0.000402568
-0.00175231
-0.00262876
-0.00313438
-0.00331762
-0.00327641
-0.00301431
-0.00263906
-0.00211159
-0.00158
-0.000939591
-0.000407784
0.0464491
0.0361729
0.0277889
0.021309
0.0162308
0.0120746
0.00858903
0.00568728
0.00335915
0.00156656
0.000264497
-0.000637742
-0.00119291
-0.00149232
-0.00155542
-0.00147538
-0.00123829
-0.000959912
-0.000580733
-0.000255616
0.053462
0.0433868
0.0346067
0.0273949
0.0215703
0.0167978
0.0128208
0.00949458
0.00676516
0.00458139
0.00290116
0.00164319
0.000754484
0.000147257
-0.000208351
-0.000397724
-0.000423689
-0.00038173
-0.000242712
-0.00012056
0.0595743
0.0496713
0.0405857
0.0327761
0.0263176
0.0210063
0.0165954
0.0128958
0.00981695
0.00729086
0.00527938
0.00370511
0.00252127
0.00163679
0.00102213
0.000586376
0.000327125
0.000145167
6.87814e-05
-1.7573e-05
0.0648763
0.055026
0.0457027
0.0374416
0.0304781
0.024711
0.0199208
0.0158922
0.0125105
0.00968748
0.00739025
0.0055379
0.00409696
0.00296486
0.00212485
0.00146546
0.00100397
0.00061131
0.000346694
4.82259e-05
0.0693243
0.0594052
0.049903
0.0413348
0.0340014
0.0278695
0.0227588
0.018447
0.0148091
0.0117357
0.00919988
0.00711069
0.00545286
0.00410633
0.00307639
0.0022207
0.00158953
0.00100675
0.000583287
8.35103e-05
0.0728141
0.0627569
0.0531211
0.0443599
0.0367782
0.0303776
0.0250167
0.0204782
0.0166378
0.0133673
0.0106456
0.00836844
0.00653958
0.00502008
0.00384009
0.00282451
0.00205947
0.00131916
0.0007696
9.93657e-05
0.0753117
0.0650988
0.0553471
0.0464562
0.0387142
0.0321327
0.0265975
0.0218984
0.0179164
0.014509
0.0116592
0.00925089
0.00730296
0.00566148
0.00437666
0.00324788
0.00238909
0.00153655
0.000897483
0.000105053
0.0767743
0.0664442
0.056583
0.0475956
0.0397554
0.0330708
0.0274369
0.0226489
0.0185893
0.0151094
0.0121911
0.00971451
0.00770258
0.00599828
0.00465654
0.00347072
0.00256005
0.0016525
0.000962222
0.000111313
0.11219
0.0685523
0.0319857
0.00223242
-0.021001
-0.0385683
-0.05131
-0.0609087
-0.0668922
-0.0789623
0.12945
0.0872895
0.0515887
0.0218035
-0.00209774
-0.0214865
-0.0358407
-0.0493112
-0.0567291
-0.0713641
0.145606
0.105206
0.0707725
0.0412428
0.0170792
-0.00409757
-0.0199484
-0.0364495
-0.0447075
-0.0590481
0.160547
0.121755
0.0884327
0.0590335
0.0347162
0.0123194
-0.00425663
-0.0217345
-0.0306716
-0.0453543
0.174281
0.136836
0.104419
0.0751408
0.0508513
0.0279936
0.0111986
-0.00655224
-0.016855
-0.0323938
0.186884
0.150605
0.119011
0.0900077
0.0659485
0.0430592
0.0259725
0.00780188
-0.00381138
-0.0197262
0.198404
0.163179
0.132388
0.103802
0.080038
0.0572161
0.0397617
0.021321
0.00906822
-0.00674992
0.208847
0.174583
0.144554
0.116446
0.0929592
0.070279
0.0526464
0.0343223
0.0218166
0.00623701
0.218188
0.184792
0.15545
0.127842
0.104635
0.0822432
0.0646399
0.0466566
0.0338941
0.0186879
0.226431
0.19382
0.165067
0.137978
0.11506
0.0930797
0.0755457
0.0579552
0.0448847
0.0302291
0.233577
0.201715
0.173459
0.146901
0.124252
0.102725
0.0852048
0.0680097
0.0546745
0.0406137
0.239691
0.208511
0.180706
0.154687
0.132274
0.111178
0.0936464
0.0768054
0.0633008
0.0496817
0.244857
0.214306
0.186941
0.161439
0.139255
0.118529
0.101026
0.0844306
0.0708656
0.0574342
0.24922
0.219252
0.192322
0.167281
0.145349
0.124911
0.107511
0.0910334
0.0775078
0.0640712
0.252914
0.223477
0.196972
0.172327
0.150668
0.130454
0.113203
0.0967871
0.0833467
0.0698953
0.256024
0.227068
0.200951
0.176657
0.155254
0.135251
0.118134
0.101828
0.0884314
0.0751093
0.258574
0.230053
0.20426
0.1803
0.159096
0.139339
0.12229
0.106191
0.0927411
0.0796802
0.260498
0.232383
0.206851
0.183223
0.162157
0.142683
0.125638
0.109804
0.0962198
0.0834225
0.261663
0.23392
0.208608
0.185305
0.164354
0.145168
0.128118
0.112538
0.0988109
0.0861891
0.262001
0.234506
0.209346
0.18629
0.165449
0.146491
0.129472
0.114083
0.100295
0.0877787
0.762751
0.763919
0.756821
0.743139
0.724255
0.699803
0.667196
0.622783
0.56788
0.53653
0.70759
0.704435
0.688621
0.667769
0.643183
0.612641
0.57255
0.519024
0.453434
0.414002
0.645772
0.636647
0.614121
0.587707
0.557874
0.521237
0.473756
0.411508
0.335832
0.288842
0.573553
0.559969
0.53364
0.50354
0.469362
0.427238
0.373088
0.303162
0.21851
0.165259
0.496358
0.479238
0.45036
0.4175
0.379679
0.332847
0.27311
0.197171
0.105067
0.0477601
0.418735
0.398288
0.367433
0.332396
0.291572
0.24085
0.176546
0.096484
-0.000918965
-0.0582371
0.343098
0.319619
0.287408
0.25085
0.207775
0.154157
0.0863692
0.00256603
-0.0918561
-0.150139
0.271075
0.245223
0.212423
0.175157
0.13074
0.0755222
0.00609752
-0.0779416
-0.167886
-0.225526
0.20424
0.176975
0.144446
0.107314
0.0625632
0.00714729
-0.061583
-0.143229
-0.227379
-0.282546
0.14361
0.116601
0.0850711
0.0485148
0.0045023
-0.0495262
-0.115628
-0.192452
-0.268712
-0.320484
1.06319
1.07186
1.08196
1.09355
1.10663
1.12108
1.13641
1.15125
1.16466
1.18298
1.06006
1.06808
1.0777
1.08875
1.10115
1.11475
1.12905
1.14264
1.15461
1.17209
1.05348
1.06019
1.06885
1.07884
1.08989
1.10181
1.11405
1.12513
1.13434
1.14996
1.04284
1.04758
1.05483
1.06326
1.07232
1.08177
1.09097
1.09833
1.10346
1.11622
1.02735
1.02945
1.03485
1.04128
1.04777
1.054
1.05922
1.06173
1.06146
1.07038
1.00607
1.00483
1.00801
1.01204
1.01543
1.01778
1.01818
1.01477
1.00784
1.01193
0.978085
0.972874
0.973612
0.974974
0.97478
0.972574
0.967371
0.957067
0.942291
0.940609
0.941662
0.932064
0.930564
0.929263
0.925168
0.917918
0.906475
0.888457
0.864765
0.85647
0.896377
0.882714
0.879643
0.875336
0.866681
0.853836
0.835618
0.80921
0.775687
0.760115
0.836263
0.82397
0.821087
0.813339
0.799632
0.780884
0.755509
0.720195
0.676126
0.652821
1.00025
1.00106
1.00245
1.00403
1.00561
1.0072
1.00889
1.0107
1.01268
1.01484
1.01722
1.01983
1.02273
1.02596
1.02959
1.03366
1.03824
1.0434
1.04923
1.0558
1.00025
1.00106
1.00242
1.00395
1.00548
1.00703
1.00867
1.01044
1.01235
1.01444
1.01674
1.01926
1.02205
1.02516
1.02864
1.03253
1.0369
1.04181
1.0473
1.05348
1.00027
1.00105
1.00232
1.00377
1.0052
1.00666
1.0082
1.00986
1.01165
1.01359
1.01572
1.01805
1.02062
1.02347
1.02663
1.03015
1.03406
1.03841
1.04321
1.04855
1.00028
1.00101
1.00214
1.00344
1.00474
1.00605
1.00743
1.00891
1.0105
1.0122
1.01405
1.01606
1.01827
1.02068
1.02333
1.02623
1.02939
1.03283
1.03648
1.04044
1.00028
1.00092
1.00186
1.00295
1.00404
1.00514
1.00628
1.00748
1.00878
1.01014
1.01158
1.01313
1.01479
1.01656
1.01844
1.02042
1.02246
1.02455
1.02649
1.02838
1.00025
1.00076
1.00145
1.00225
1.00307
1.00388
1.0047
1.00556
1.0064
1.00726
1.00815
1.00906
1.00996
1.01083
1.01164
1.01232
1.0128
1.013
1.01256
1.01151
1.00017
1.00051
1.00089
1.00132
1.00177
1.00219
1.00259
1.00294
1.00322
1.00346
1.00362
1.00367
1.00357
1.00323
1.00258
1.00151
0.999865
0.99749
0.99396
0.989112
1.00004
1.00012
1.00013
1.00014
1.00013
1.00007
0.999888
0.999609
0.999213
0.998658
0.997903
0.996867
0.995485
0.993618
0.991168
0.987871
0.983567
0.977756
0.970031
0.959551
0.999822
0.999502
0.99913
0.998697
0.998155
0.997467
0.996624
0.995604
0.994372
0.992846
0.990964
0.988588
0.985641
0.98186
0.977182
0.971064
0.963557
0.953438
0.940913
0.922993
0.999649
0.998798
0.997993
0.997097
0.995925
0.994469
0.992791
0.99087
0.988629
0.985918
0.982649
0.978586
0.973653
0.967344
0.959685
0.949486
0.937314
0.920213
0.900846
0.871857
0.999496
0.998269
0.997145
0.995751
0.993836
0.991495
0.988898
0.98601
0.982701
0.978725
0.973982
0.968136
0.96113
0.952243
0.941575
0.927463
0.910639
0.886553
0.857512
0.808901
0.999361
0.998139
0.996741
0.994625
0.991735
0.988429
0.984973
0.981225
0.976964
0.971864
0.965861
0.958543
0.949932
0.939118
0.92639
0.909757
0.890369
0.863746
0.833716
0.791899
1.00027
0.999554
0.997642
0.994077
0.989611
0.985139
0.980874
0.97635
0.971181
0.964986
0.957796
0.949136
0.939129
0.926702
0.912368
0.893979
0.873205
0.845751
0.816328
0.776525
0.999955
1.00206
1.00053
0.994484
0.987468
0.981537
0.976548
0.971335
0.965261
0.957944
0.949582
0.939647
0.928361
0.914502
0.898836
0.879064
0.857374
0.829238
0.80012
0.760895
1.00066
1.00541
1.00311
0.993679
0.98398
0.976955
0.971636
0.965924
0.958994
0.950584
0.941118
0.930009
0.917584
0.902475
0.885711
0.864839
0.842473
0.813834
0.784985
0.746609
1.00138
1.00867
1.00499
0.990855
0.97881
0.97154
0.966287
0.96009
0.952258
0.942805
0.932344
0.920191
0.906747
0.890558
0.872864
0.85115
0.828277
0.799462
0.770938
0.733756
0.993857
0.993237
0.988967
0.979474
0.970947
0.965822
0.960942
0.953871
0.944936
0.934532
0.923245
0.910208
0.895845
0.878731
0.860226
0.837917
0.814651
0.785989
0.757746
0.721984
0.999401
0.973734
0.95063
0.948257
0.955702
0.959227
0.95562
0.947179
0.936943
0.925765
0.913876
0.900151
0.884971
0.867098
0.847877
0.825211
0.801621
0.773365
0.745299
0.711055
0.991884
0.947242
0.918138
0.927224
0.946495
0.95533
0.951769
0.941561
0.929839
0.917762
0.905151
0.890703
0.874682
0.856138
0.836243
0.81337
0.789477
0.76175
0.733749
0.700953
0.990856
0.941086
0.910504
0.921921
0.943739
0.952991
0.948247
0.936614
0.923743
0.910787
0.89731
0.882066
0.865209
0.846095
0.82561
0.802638
0.77848
0.751297
0.723313
0.691761
0.996182
0.961719
0.938744
0.94336
0.953335
0.954167
0.945699
0.932885
0.919301
0.905431
0.890838
0.874626
0.856917
0.837293
0.816317
0.793275
0.768913
0.742172
0.71423
0.683628
0.986471
0.989492
0.998842
0.992917
0.977981
0.961519
0.94619
0.931712
0.917368
0.902325
0.8863
0.868885
0.85027
0.830111
0.808715
0.785538
0.761032
0.734523
0.706692
0.67667
1.00136
1.02727
1.04213
1.02471
0.993566
0.965961
0.945968
0.930375
0.915591
0.899685
0.882525
0.8641
0.844791
0.824196
0.802552
0.77921
0.75469
0.728206
0.700621
0.670776
1.00962
1.04498
1.05992
1.03742
0.999803
0.967321
0.945184
0.929062
0.914023
0.897482
0.879473
0.860242
0.840425
0.819458
0.797674
0.774128
0.749681
0.723074
0.695836
0.66589
1.01246
1.05383
1.06963
1.04253
1.00009
0.965235
0.942868
0.927131
0.912227
0.895313
0.876725
0.856913
0.836733
0.815458
0.793561
0.769836
0.745473
0.718787
0.69189
0.66196
1.00852
1.05915
1.08539
1.05316
1.00066
0.960478
0.937439
0.922938
0.908816
0.892013
0.873364
0.853443
0.833125
0.811679
0.789658
0.765879
0.741558
0.71502
0.688351
0.658851
0.970717
0.982801
1.01982
1.02021
0.995483
0.965598
0.941135
0.922053
0.905137
0.887853
0.869656
0.850204
0.829965
0.808437
0.78622
0.762469
0.738112
0.711897
0.685316
0.656469
1.00316
0.930619
0.867253
0.883216
0.92469
0.945427
0.939194
0.919848
0.89972
0.881806
0.864765
0.846558
0.826851
0.805507
0.783211
0.7596
0.735244
0.709408
0.682895
0.65461
1.00951
0.93294
0.853622
0.861173
0.906466
0.933417
0.932291
0.916458
0.897656
0.879783
0.86249
0.844278
0.824653
0.803487
0.781203
0.757722
0.733352
0.707779
0.681322
0.65343
0.966347
0.984582
1.02951
1.01676
0.974694
0.942059
0.924831
0.912746
0.898727
0.881748
0.863121
0.843713
0.823637
0.802525
0.78029
0.756873
0.732451
0.706999
0.680562
0.652945
0.756654
0.697234
0.636629
0.569229
0.49646
0.423294
0.352307
0.284452
0.220974
0.163067
0.750718
0.688579
0.624684
0.560282
0.491652
0.421968
0.354806
0.291052
0.231665
0.177641
0.73876
0.678834
0.613646
0.551583
0.487745
0.422017
0.358304
0.298191
0.242476
0.191444
0.726137
0.670084
0.605026
0.543809
0.483782
0.422107
0.361712
0.30479
0.252302
0.204038
0.713954
0.661386
0.597491
0.536775
0.47973
0.422155
0.365224
0.31119
0.261497
0.215675
0.702357
0.65275
0.59079
0.530849
0.476101
0.422282
0.368851
0.317516
0.270216
0.226467
0.691224
0.644148
0.584652
0.525993
0.473135
0.422555
0.37248
0.323715
0.278474
0.236446
0.680445
0.635595
0.579012
0.522215
0.471065
0.423127
0.376044
0.329671
0.286223
0.245611
0.670116
0.627218
0.573868
0.519455
0.469947
0.424055
0.379431
0.335193
0.293326
0.253912
0.660495
0.619268
0.56924
0.517557
0.469673
0.425297
0.382531
0.340095
0.299613
0.261299
0.651992
0.612177
0.56523
0.516303
0.469984
0.426708
0.385252
0.344267
0.304944
0.267506
0.644985
0.606381
0.561955
0.515435
0.470523
0.428069
0.38752
0.347689
0.309423
0.272919
0.639495
0.601989
0.55939
0.514681
0.470933
0.429155
0.389292
0.350406
0.313106
0.277481
0.635349
0.598811
0.557387
0.513856
0.470995
0.429834
0.390578
0.352504
0.316075
0.281262
0.632132
0.59631
0.555612
0.512831
0.470659
0.430098
0.391439
0.354097
0.31845
0.284384
0.629347
0.593914
0.553789
0.511654
0.470101
0.430118
0.392027
0.355333
0.320366
0.286962
0.626788
0.591487
0.551956
0.510528
0.469572
0.430091
0.392466
0.356306
0.321894
0.289057
0.624537
0.589223
0.550231
0.509475
0.469033
0.429934
0.392648
0.356914
0.322952
0.290605
0.623078
0.587661
0.548955
0.508589
0.468413
0.429497
0.392395
0.35697
0.323367
0.291451
0.622515
0.587064
0.548453
0.508163
0.467962
0.428994
0.391881
0.356574
0.32315
0.291513
)
;

boundaryField
{
    bottom
    {
        type            symmetryPlane;
    }
    right
    {
        type            fixedValue;
        value           uniform 0;
    }
    top
    {
        type            symmetryPlane;
    }
    left
    {
        type            fixedValue;
        value           uniform 1;
    }
    cylinder
    {
        type            zeroGradient;
    }
    defaultFaces
    {
        type            empty;
    }
}


// ************************************************************************* //
