/*--------------------------------*- C++ -*----------------------------------*\
| =========                 |                                                 |
| \\      /  F ield         | OpenFOAM: The Open Source CFD Toolbox           |
|  \\    /   O peration     | Version:  4.1                                   |
|   \\  /    A nd           | Web:      www.OpenFOAM.org                      |
|    \\/     M anipulation  |                                                 |
\*---------------------------------------------------------------------------*/
FoamFile
{
    version     2.0;
    format      ascii;
    class       surfaceScalarField;
    location    "8.6";
    object      phi;
}
// * * * * * * * * * * * * * * * * * * * * * * * * * * * * * * * * * * * * * //

dimensions      [0 3 -1 0 0 0 0];

internalField   nonuniform List<scalar> 
3890
(
0.000248421
0.00265526
-0.00290368
0.00225288
0.00129512
-0.00329957
0.00690481
-0.00460316
-4.87758e-05
0.0146787
-0.0137335
0.00595965
0.0253607
-0.0245871
0.0139051
0.0380961
-0.0356016
0.0228662
0.0517297
-0.0455592
0.0319257
0.0653204
-0.0538852
0.0402945
0.0780039
-0.0604954
0.0478119
-0.0648383
0.0541418
0.0887003
0.000535816
0.00211944
0.00360854
-0.00177761
0.0101788
-0.0111734
0.0202614
-0.0238162
0.0327834
-0.0371092
0.0461913
-0.0490095
0.0591387
-0.0585066
0.0707637
-0.0655102
0.0805062
-0.0702379
-0.0733325
0.0890004
0.000958582
0.00116086
0.00539237
-0.0062114
0.0140015
-0.0197825
0.0258003
-0.035615
0.03878
-0.0500889
0.0511429
-0.0613723
0.06187
-0.0692337
0.0706451
-0.0742854
0.0777705
-0.0773633
-0.0793332
0.0837712
0.00151314
-0.000352284
0.00749336
-0.0121916
0.0177978
-0.0300869
0.0301348
-0.047952
0.0420589
-0.0620129
0.0521975
-0.071511
0.0602481
-0.0772843
0.0665639
-0.0806012
0.0717231
-0.0825225
-0.083807
0.076197
0.00218553
-0.00253782
0.00967094
-0.019677
0.0208295
-0.0412455
0.0324002
-0.0595227
0.0422888
-0.0719016
0.0499388
-0.079161
0.0557082
-0.0830537
0.0602363
-0.0851293
0.0641017
-0.0863879
-0.0874448
0.0677395
0.00294637
-0.00548419
0.011566
-0.0282967
0.0225118
-0.0521912
0.0324087
-0.0694196
0.0400039
-0.0794967
0.0454756
-0.0846328
0.0495102
-0.0870884
0.0527665
-0.0883855
0.0557118
-0.0893333
-0.0902599
0.0585269
0.00371245
-0.00919664
0.0128193
-0.0374036
0.0226643
-0.0620361
0.0305239
-0.0772793
0.0360011
-0.0849739
0.0397179
-0.0883497
0.0424371
-0.0898075
0.0447149
-0.0906633
0.0468464
-0.0914648
-0.0923631
0.0489496
0.00435786
-0.0135545
0.0132153
-0.046261
0.0214552
-0.0702761
0.0272869
-0.0831109
0.0309538
-0.0886408
0.0332745
-0.0906703
0.0349463
-0.0914794
0.0363772
-0.0920941
0.0377475
-0.092835
-0.0937137
0.0390981
0.00475758
-0.0183121
0.0127381
-0.0542415
0.0192038
-0.0767417
0.0231912
-0.0870983
0.0253497
-0.0907993
0.0265291
-0.0918497
0.0273
-0.0922504
0.0279402
-0.0927343
0.0285381
-0.093433
-0.094288
0.0291124
0.00483869
-0.0231508
0.011562
-0.0609649
0.0162556
-0.0814353
0.0186254
-0.0894681
0.0195204
-0.0916943
0.0197206
-0.0920499
0.019663
-0.0921928
0.0195243
-0.0925956
0.0193492
-0.0932579
0.0191375
-0.0940763
-0.000959809
0.000959809
-0.0028069
0.00184709
-0.00507804
0.00227114
-0.00754836
0.00247033
-0.0101084
0.00256008
-0.0127098
0.00260132
-0.0153366
0.00262687
-0.0179925
0.00265588
-0.0206987
0.00270618
0.00280165
-0.0235003
-0.000844064
0.00180387
-0.00248705
0.00349007
-0.00450744
0.00429154
-0.00667794
0.00464082
-0.00887651
0.00475865
-0.0110377
0.00476253
-0.0131277
0.00471689
-0.0151339
0.004662
-0.0170609
0.00463317
0.00469238
-0.0189516
-0.000641413
0.00244529
-0.00192744
0.0047761
-0.0034967
0.00586079
-0.00512949
0.00627361
-0.0066891
0.00631827
-0.00808495
0.00615839
-0.00925285
0.00588479
-0.0101511
0.00556022
-0.0107559
0.00523801
0.00499484
-0.0110584
-0.00040614
0.00285143
-0.00125425
0.00562422
-0.00225644
0.00686298
-0.00320887
0.00722604
-0.00396687
0.00707627
-0.00441962
0.00661113
-0.00447119
0.00593636
-0.00403686
0.00512589
-0.00304769
0.00424885
0.00345224
-0.00150509
-0.000193378
0.00304481
-0.000605082
0.00603592
-0.00101004
0.00726793
-0.00122328
0.00743929
-0.00109698
0.00694997
-0.000506394
0.00602055
0.00066705
0.00476292
0.00254233
0.00325061
0.00522689
0.00156429
-0.000270231
0.00894935
-4.48856e-05
0.00308969
-8.15836e-05
0.00607262
7.76176e-05
0.00710873
0.000621129
0.00689578
0.00171167
0.00585942
0.00349917
0.00423305
0.00612844
0.00213365
0.00973696
-0.000357904
0.0143557
-0.00305448
-0.00655434
0.0206398
2.40504e-05
0.00306564
0.000271182
0.00582549
0.000961575
0.00641834
0.0023114
0.00554595
0.00453367
0.00363716
0.00783257
0.000934145
0.0123807
-0.00241452
0.0183212
-0.00629838
0.0254605
-0.0101938
-0.0158296
0.0347358
3.42422e-05
0.0030314
0.000522164
0.00533757
0.00177824
0.00516227
0.0041067
0.00321749
0.00779986
-5.6005e-05
0.0131202
-0.00438618
0.0201922
-0.00948652
0.0290128
-0.0151189
0.0392457
-0.0204268
-0.0279909
0.0514071
3.65312e-05
0.00299487
0.000818661
0.00455544
0.0028253
0.00315563
0.00649191
-0.000449115
0.0121843
-0.00574844
0.0200558
-0.0122576
0.0300232
-0.019454
0.0416826
-0.0267783
0.0547649
-0.0335091
-0.0414653
0.0682393
9.11913e-05
0.00134706
0.00445391
0.00996445
0.0181211
0.0287297
0.0412014
0.0547177
0.0690205
0.081697
-0.0251952
0.00169488
-0.0268168
0.00162161
-0.0283392
0.0015224
-0.0297539
0.00141471
-0.0310501
0.00129612
-0.0322144
0.0011643
-0.0332312
0.00101688
-0.0340828
0.000851511
-0.0347485
0.000665698
-0.0352047
0.000456251
-0.0354229
0.000218179
-0.0353729
-4.99421e-05
-0.0350523
-0.000320637
-0.0344187
-0.000633607
-0.0334342
-0.000984543
-0.0320647
-0.00136949
-0.0302952
-0.00176946
-0.0281402
-0.00215499
-0.0256174
-0.00252276
-0.0028534
-0.0203393
0.00308259
-0.0216789
0.00296126
-0.0229355
0.00277894
-0.0241007
0.00257991
-0.0251636
0.00235901
-0.0261113
0.00211203
-0.0269291
0.00183468
-0.0276004
0.00152285
-0.0281076
0.00117282
-0.0284315
0.000780224
-0.0285507
0.000337314
-0.0284531
-0.00014755
-0.0281241
-0.000649562
-0.0275393
-0.00121846
-0.0266751
-0.0018487
-0.0255048
-0.00253984
-0.0240034
-0.00327086
-0.0221626
-0.00399584
-0.0200039
-0.00468139
-0.00529739
-0.0119198
0.00394402
-0.0127426
0.00378402
-0.0135227
0.00355908
-0.014242
0.00329925
-0.0148881
0.00300508
-0.0154493
0.00267326
-0.0159112
0.00229653
-0.0162578
0.00186945
-0.0164734
0.00138846
-0.0165422
0.000849018
-0.0164431
0.000238144
-0.0161993
-0.000391286
-0.0157797
-0.00106923
-0.0151719
-0.00182621
-0.0143797
-0.00264089
-0.0133966
-0.00352296
-0.0122072
-0.00446023
-0.0107841
-0.005419
-0.00912795
-0.0063375
-0.00712531
-0.00158436
0.00402329
-0.00178791
0.00398756
-0.00197878
0.00374994
-0.00212915
0.00344963
-0.00223845
0.00311438
-0.0023008
0.00273561
-0.0023008
0.00229652
-0.00222045
0.0017891
-0.00204441
0.00121243
-0.0017563
0.000560901
-0.00135978
-0.000158375
-0.000854839
-0.000896226
-0.000216054
-0.00170801
0.000530478
-0.00257274
0.00139851
-0.00350892
0.00237519
-0.00449964
0.00344717
-0.00553221
0.00462093
-0.00659277
0.00589851
-0.00761508
-0.00857999
0.00948016
0.00349249
0.00993042
0.00353731
0.0103477
0.00333269
0.0107831
0.00301423
0.0112413
0.0026562
0.0117215
0.0022554
0.0122324
0.00178554
0.0127941
0.00122748
0.0134238
0.000582663
0.0141308
-0.000146041
0.0148787
-0.000906314
0.0157245
-0.00174204
0.0166578
-0.00264124
0.0176827
-0.00359772
0.0187791
-0.0046053
0.0199307
-0.00565122
0.0211087
-0.00671018
0.0222973
-0.00778142
0.0234485
-0.00876631
-0.00983694
0.0216469
0.00248544
0.0225776
0.00260656
0.0234844
0.00242595
0.0244141
0.00208446
0.0253636
0.00170676
0.0263305
0.00128852
0.0273236
0.000792366
0.0283744
0.000176727
0.0294484
-0.000491392
0.030548
-0.00124557
0.0317146
-0.00207295
0.0329405
-0.00296797
0.034224
-0.00392466
0.0355574
-0.00493119
0.0369255
-0.00597336
0.0383103
-0.00703603
0.0396805
-0.00808039
0.0410193
-0.00912021
0.0422563
-0.0100034
-0.0110435
0.0358764
0.00134482
0.0370129
0.00147007
0.0381775
0.0012613
0.0393964
0.000865623
0.0406528
0.000450283
0.0419533
-1.19002e-05
0.0433046
-0.000559011
0.0446792
-0.0011978
0.0461058
-0.00191804
0.0475757
-0.00271544
0.0490894
-0.00358665
0.0506423
-0.00452085
0.052227
-0.00550938
0.0538299
-0.00653406
0.0554344
-0.00757793
0.0570188
-0.00862043
0.0585552
-0.00961672
0.0600216
-0.0105867
0.0613746
-0.0113563
-0.0122708
0.0523475
0.000404357
0.0534118
0.000405787
0.054627
4.61339e-05
0.0559058
-0.000413243
0.0572642
-0.000908059
0.0586978
-0.00144548
0.0602064
-0.00206766
0.0617776
-0.00276897
0.063403
-0.00354341
0.0650733
-0.00438579
0.06678
-0.00529336
0.0685101
-0.00625092
0.0702502
-0.00724945
0.0719805
-0.00826442
0.0736831
-0.00928047
0.0753315
-0.0102689
0.0769063
-0.0111915
0.0783747
-0.0120551
0.079738
-0.0127197
-0.0134612
0.0690667
-0.000423047
0.0701147
-0.000642224
0.0713141
-0.0011532
0.0725957
-0.00169484
0.0739588
-0.00227121
0.0754215
-0.00290818
0.0769639
-0.00361006
0.0785649
-0.00436992
0.080211
-0.00518958
0.0818903
-0.00606503
0.0835895
-0.00699255
0.0852928
-0.00795428
0.0869841
-0.00894068
0.0886439
-0.00992431
0.0902544
-0.010891
0.0917929
-0.0118074
0.0932463
-0.0126449
0.094582
-0.0133908
0.0958212
-0.0139588
-0.0145277
0.0828131
-0.0015392
0.0842186
-0.00204772
0.0855577
-0.00249231
0.0869061
-0.00304326
0.0882951
-0.00366013
0.0897225
-0.00433564
0.0911823
-0.00506985
0.09267
-0.00585756
0.0941796
-0.00669926
0.0957035
-0.00758889
0.097231
-0.00852008
0.098752
-0.00947523
0.100252
-0.0104406
0.10172
-0.0113921
0.103138
-0.0123093
0.104498
-0.0131676
0.105786
-0.0139322
0.106993
-0.0145985
0.10812
-0.0150853
-0.0154861
0.111763
-0.000892776
-0.112409
0.111254
-0.00153905
0.110924
-0.00216282
0.110716
-0.00283461
0.11062
-0.00356441
0.110612
-0.00432799
0.110662
-0.00511898
0.11074
-0.00593598
0.110822
-0.0067816
0.110885
-0.00765158
0.110905
-0.00853974
0.110862
-0.00943264
0.110738
-0.0103165
0.11052
-0.0111742
0.110195
-0.0119839
0.10976
-0.0127329
0.109209
-0.0133817
0.108555
-0.0139436
0.107798
-0.0143288
-0.0146101
0.119055
-0.000679134
-0.119268
0.118875
-0.00135951
0.11874
-0.00202743
0.118633
-0.00272748
0.118535
-0.00346647
0.118439
-0.00423262
0.118338
-0.00501734
0.118219
-0.00581723
0.118069
-0.00663192
0.117875
-0.00745755
0.117622
-0.00828706
0.1173
-0.00911071
0.116898
-0.00991371
0.116409
-0.0106856
0.115828
-0.0114025
0.115156
-0.0120616
0.114395
-0.0126206
0.113555
-0.0131029
0.112648
-0.0134218
-0.013686
0.123332
-0.000458246
-0.123553
0.123197
-0.00122395
0.123112
-0.0019426
0.123038
-0.00265345
0.12295
-0.00337841
0.122837
-0.00412014
0.122694
-0.00487372
0.122511
-0.00563493
0.12228
-0.00640096
0.121992
-0.00716883
0.121636
-0.0079311
0.121207
-0.00868163
0.120698
-0.00940501
0.120109
-0.0100967
0.119437
-0.0107306
0.118689
-0.0113134
0.117867
-0.0117984
0.116987
-0.0122235
0.116064
-0.0124981
-0.0127381
0.126073
-0.000346269
-0.126185
0.125988
-0.00113906
0.125923
-0.00187804
0.125855
-0.00258544
0.125765
-0.00328756
0.12564
-0.00399548
0.125475
-0.00470864
0.125263
-0.00542356
0.124999
-0.00613606
0.124673
-0.00684374
0.124282
-0.00753922
0.123819
-0.00821924
0.123283
-0.00886859
0.122673
-0.00948717
0.121991
-0.0100482
0.121243
-0.0105652
0.120434
-0.0109892
0.119578
-0.0113682
0.118686
-0.0116057
-0.0118275
0.12813
-0.000331925
-0.128144
0.128092
-0.00110116
0.128045
-0.00183104
0.127983
-0.00252333
0.127892
-0.00319693
0.127763
-0.00386605
0.127589
-0.00453431
0.127365
-0.00519995
0.127087
-0.00585833
0.126751
-0.00650732
0.126351
-0.00713971
0.125886
-0.00775423
0.125354
-0.00833654
0.124757
-0.00888946
0.124095
-0.00938701
0.123377
-0.00984634
0.122607
-0.0102192
0.121796
-0.0105574
0.120955
-0.0107648
-0.0109709
0.130048
-0.000362761
-0.130017
0.130037
-0.00109033
0.13
-0.00179437
0.129938
-0.00246124
0.129843
-0.00310165
0.129706
-0.00372974
0.129524
-0.00435177
0.129292
-0.00496779
0.129007
-0.0055734
0.128666
-0.00616659
0.128267
-0.0067405
0.127808
-0.00729502
0.127288
-0.00781709
0.12671
-0.00831125
0.126076
-0.00875315
0.125391
-0.00916156
0.124663
-0.00949046
0.123897
-0.00979218
0.123107
-0.00997445
-0.0101634
0.13206
-0.000411037
-0.132012
0.132061
-0.00109163
0.132025
-0.00175815
0.131955
-0.00239076
0.131847
-0.00299412
0.131698
-0.00358029
0.131502
-0.0041564
0.131258
-0.0047238
0.130964
-0.00527874
0.130616
-0.00581938
0.130215
-0.00633931
0.129759
-0.00683908
0.129249
-0.00730697
0.128686
-0.00774843
0.128074
-0.0081412
0.127417
-0.00850423
0.126721
-0.00879488
0.125993
-0.00906348
0.125242
-0.0092241
-0.00939501
0.134209
-0.000465047
-0.134155
0.13421
-0.00109294
0.134166
-0.00171385
0.134081
-0.00230595
0.133956
-0.00286921
0.133789
-0.00341284
0.133576
-0.00394365
0.133316
-0.00446375
0.133007
-0.00497014
0.132649
-0.00546123
0.132241
-0.00593113
0.131782
-0.00638068
0.131275
-0.00679956
0.13072
-0.00719345
0.130121
-0.00754245
0.129482
-0.00786474
0.128809
-0.00812166
0.128105
-0.00836002
0.127383
-0.00850159
-0.00865441
0.136447
-0.000513054
-0.136399
0.136439
-0.00108509
0.136382
-0.00165621
0.136279
-0.00220383
0.136135
-0.00272457
0.135947
-0.00322491
0.135714
-0.00371087
0.135435
-0.00418483
0.13511
-0.00464451
0.134737
-0.00508854
0.134317
-0.00551166
0.133851
-0.00591475
0.133341
-0.0062888
0.132787
-0.00663937
0.132193
-0.00694893
0.131563
-0.00723433
0.130902
-0.00746114
0.130214
-0.00767176
0.129509
-0.00779637
-0.00793158
0.138706
-0.000546162
-0.138673
0.138683
-0.00106273
0.138609
-0.00158237
0.138489
-0.00208304
0.138323
-0.00255934
0.138114
-0.00301562
0.13786
-0.00345697
0.137561
-0.00388573
0.137217
-0.0043002
0.136827
-0.00469921
0.136394
-0.00507813
0.135917
-0.00543778
0.135399
-0.00577036
0.13484
-0.00608106
0.134246
-0.00635465
0.133618
-0.00660631
0.132963
-0.00680589
0.132282
-0.00699099
0.131586
-0.00710031
-0.00721873
0.140921
-0.000560859
-0.140906
0.140881
-0.00102305
0.140789
-0.00149064
0.140649
-0.00194286
0.140463
-0.00237339
0.140232
-0.00278499
0.139957
-0.00318187
0.139638
-0.0035662
0.139274
-0.00393668
0.138867
-0.00429232
0.138418
-0.0046291
0.137928
-0.00494771
0.137399
-0.0052415
0.136833
-0.0055151
0.136234
-0.00575548
0.135604
-0.00597602
0.134949
-0.00615067
0.13427
-0.00631219
0.133577
-0.00640756
-0.00651019
0.143039
-0.00055611
-0.143043
0.14298
-0.00096471
0.14287
-0.0013801
0.14271
-0.00178311
0.142504
-0.00216706
0.142252
-0.00253358
0.141957
-0.00288617
0.141617
-0.0032267
0.141235
-0.00355422
0.14081
-0.00386783
0.140345
-0.00416413
0.139841
-0.00444363
0.1393
-0.00470075
0.138725
-0.00493951
0.138118
-0.0051489
0.137483
-0.00534044
0.136824
-0.00549201
0.136143
-0.00563163
0.13545
-0.00571415
-0.00580206
0.145015
-0.000531627
-0.14504
0.144938
-0.000887453
0.144809
-0.00125081
0.14463
-0.0016043
0.144404
-0.00194127
0.144133
-0.00226255
0.143818
-0.00257102
0.14346
-0.00286831
0.143059
-0.0031537
0.142618
-0.0034264
0.142137
-0.00368353
0.141619
-0.00392549
0.141066
-0.00414764
0.14048
-0.00435335
0.139864
-0.00453352
0.139222
-0.00469782
0.138558
-0.0048278
0.137873
-0.00494695
0.137176
-0.00501752
-0.00509175
0.146814
-0.00048821
-0.146857
0.146719
-0.000792303
0.146572
-0.00110399
0.146375
-0.00140787
0.146132
-0.00169764
0.145843
-0.0019736
0.14551
-0.00223815
0.145134
-0.00249264
0.144717
-0.00273658
0.14426
-0.00296924
0.143765
-0.00318827
0.143233
-0.00339391
0.142668
-0.00358241
0.142071
-0.00375653
0.141447
-0.00390886
0.140796
-0.00404735
0.140125
-0.00415691
0.139435
-0.00425682
0.138734
-0.00431615
-0.00437768
0.148404
-0.000428252
-0.148464
0.148293
-0.00068159
0.148131
-0.000941919
0.147919
-0.0011961
0.14766
-0.00143848
0.147356
-0.00166906
0.147007
-0.00188978
0.146616
-0.00210181
0.146185
-0.00230477
0.145713
-0.00249804
0.145205
-0.00267974
0.144661
-0.00285
0.144084
-0.00300586
0.143477
-0.0031495
0.142844
-0.00327506
0.142185
-0.00338886
0.141507
-0.00347895
0.140811
-0.00356062
0.140104
-0.00360929
-0.00365899
0.149763
-0.00035531
-0.149836
0.14964
-0.000558527
0.149465
-0.000767611
0.149241
-0.000971866
0.148969
-0.00116655
0.148652
-0.00135156
0.14829
-0.00152843
0.147887
-0.00169813
0.147442
-0.00186039
0.146959
-0.00201471
0.146439
-0.0021596
0.145884
-0.00229516
0.145297
-0.0024191
0.144681
-0.0025331
0.144038
-0.00263268
0.143372
-0.0027227
0.142687
-0.00279397
0.141985
-0.00285825
0.141272
-0.00289669
-0.00293532
0.150876
-0.000273
-0.150958
0.150744
-0.000426337
0.15056
-0.000584026
0.150326
-0.000737949
0.150044
-0.000884491
0.149716
-0.00102364
0.149344
-0.00115652
0.14893
-0.00128391
0.148475
-0.00140555
0.147982
-0.00152117
0.147452
-0.00162956
0.146888
-0.00173091
0.146292
-0.00182339
0.145667
-0.00190842
0.145017
-0.00198255
0.144344
-0.00204949
0.143652
-0.00210245
0.142944
-0.00215001
0.142226
-0.00217856
-0.00220679
0.151733
-0.000184035
-0.151822
0.151594
-0.000287578
0.151404
-0.000393526
0.151162
-0.000496577
0.150873
-0.000594514
0.150536
-0.000687504
0.150156
-0.000776184
0.149733
-0.000861223
0.14927
-0.00094227
0.148768
-0.00101936
0.14823
-0.00109141
0.147658
-0.00115889
0.147055
-0.00122022
0.146423
-0.00127678
0.145767
-0.00132581
0.145087
-0.00137028
0.14439
-0.00140521
0.143677
-0.00143668
0.142954
-0.00145549
-0.00147394
0.15232
-9.05662e-05
-0.152413
0.152177
-0.000144609
0.151982
-0.000198182
0.151735
-0.000249826
0.151439
-0.000298755
0.151097
-0.000345328
0.15071
-0.00038964
0.150282
-0.000432315
0.149812
-0.000472743
0.149304
-0.000511452
0.14876
-0.000547226
0.148182
-0.000581188
0.147573
-0.00061142
0.146937
-0.000640078
0.146275
-0.000663921
0.145591
-0.00068681
0.144889
-0.000703264
0.144173
-0.000720058
0.143445
-0.000728037
-0.000738215
0.152619
-0.152709
0.152474
0.152276
0.152026
0.151728
0.151382
0.150993
0.15056
0.150088
0.149576
0.149029
0.148448
0.147836
0.147196
0.146532
0.145845
0.145142
0.144422
0.143694
0.0967036
0.0175024
-0.0950685
0.0985418
0.0272743
0.100617
0.0370233
0.102885
0.0466807
0.10541
0.0560021
0.108119
0.0650309
0.110703
0.0736126
0.113578
0.0808962
0.113443
0.0891353
0.0897347
0.0977995
0.0160008
-0.096298
0.0995528
0.025521
0.101597
0.0349791
0.103935
0.0443431
0.106466
0.0534711
0.109493
0.0620038
0.112242
0.0708629
0.115899
0.0772395
0.118538
0.0864968
0.0890041
0.0991067
0.0146479
-0.0977538
0.10077
0.0238578
0.102713
0.0330362
0.10507
0.0419859
0.10756
0.0509816
0.110669
0.0588948
0.11371
0.0678218
0.117216
0.0737333
0.121137
0.0825757
0.0865878
0.100547
0.013421
-0.0993201
0.102141
0.0222635
0.104005
0.0311727
0.106329
0.0396619
0.108846
0.0484648
0.11184
0.0559002
0.115148
0.0645137
0.118443
0.0704386
0.122668
0.0783511
0.0830705
0.102073
0.0122898
-0.100942
0.103607
0.02073
0.105449
0.0293303
0.107717
0.0373943
0.110316
0.0458652
0.113197
0.0530196
0.116636
0.0610745
0.119978
0.0670967
0.124139
0.0741907
0.0790646
0.103646
0.0112276
-0.102584
0.105121
0.0192549
0.106978
0.0274739
0.109208
0.0351637
0.111888
0.0431855
0.114771
0.0501361
0.11825
0.0575961
0.121764
0.0635822
0.125836
0.0701184
0.0748843
0.105229
0.0102192
-0.10422
0.106655
0.0178282
0.108529
0.0256002
0.110764
0.0329289
0.113499
0.0404508
0.116474
0.0471607
0.119974
0.0540962
0.12365
0.0599063
0.127732
0.0660366
0.0706044
0.106789
0.00925978
-0.10583
0.108184
0.0164338
0.110067
0.0237169
0.112338
0.0306575
0.115115
0.0376743
0.118206
0.0440696
0.121758
0.0505446
0.125575
0.0560894
0.129759
0.0618522
0.0662086
0.108304
0.00834817
-0.107392
0.10968
0.0150578
0.111569
0.0218284
0.11389
0.0283362
0.116712
0.0348522
0.119914
0.040868
0.123557
0.046901
0.127516
0.0521303
0.131853
0.057516
0.0616621
0.109753
0.00748167
-0.108887
0.111119
0.0136918
0.113015
0.0199326
0.115387
0.0259641
0.118266
0.0319731
0.121572
0.0375626
0.125332
0.0431405
0.129439
0.0480237
0.133945
0.0530102
0.0569342
0.11112
0.00665531
-0.110294
0.112479
0.0123323
0.114387
0.0180245
0.116808
0.0235436
0.119752
0.0290288
0.123158
0.0341573
0.127041
0.0392569
0.131297
0.0437674
0.135977
0.0483302
0.0520057
0.112385
0.00586267
-0.111592
0.113741
0.0109767
0.115665
0.0160998
0.118132
0.0210767
0.121144
0.0260166
0.124646
0.0306558
0.12865
0.035253
0.133055
0.0393623
0.137908
0.0434775
0.0468702
0.11353
0.00509675
-0.112764
0.114885
0.00962246
0.116829
0.0141552
0.119341
0.018565
0.12242
0.0229379
0.126013
0.0270621
0.130132
0.0311345
0.134682
0.0348121
0.139701
0.0384585
0.0415312
0.114539
0.00435024
-0.113793
0.115895
0.00826625
0.117862
0.0121888
0.120417
0.01601
0.123558
0.019796
0.127239
0.0233813
0.131465
0.0269089
0.136152
0.0301251
0.141326
0.0332843
0.0359999
0.115399
0.00361582
-0.114665
0.116761
0.00690456
0.11875
0.0101997
0.121346
0.0134137
0.124546
0.0165957
0.128308
0.0196201
0.13263
0.022586
0.137442
0.0253133
0.142757
0.0279698
0.0302929
0.116107
0.0028871
-0.115378
0.117477
0.00553467
0.119488
0.00818829
0.122123
0.0107794
0.125375
0.0133431
0.129208
0.0157877
0.133616
0.0181779
0.138537
0.0203917
0.143975
0.0225326
0.0244319
0.116671
0.0021602
-0.115944
0.118049
0.00415607
0.120081
0.00615693
0.122748
0.00811265
0.126044
0.0100465
0.129937
0.0118953
0.134416
0.0136984
0.139429
0.0153783
0.144969
0.0169933
0.0184423
0.117102
0.00143549
-0.116377
0.118487
0.00277116
0.120533
0.0041106
0.123225
0.00542096
0.126555
0.00671602
0.130494
0.00795635
0.135029
0.0091638
0.140114
0.0102933
0.145732
0.0113746
0.0123526
0.117402
0.000717365
-0.116684
0.118789
0.00138413
0.120844
0.00205613
0.123551
0.00271366
0.126904
0.00336328
0.130874
0.00398592
0.135447
0.00459143
0.140581
0.00515905
0.146254
0.00570109
0.0061934
0.117561
-0.116844
0.118945
0.121002
0.123715
0.127079
0.131064
0.135656
0.140815
0.146516
0.0463772
0.0605893
-0.054896
-0.0520704
0.0403937
0.0602835
-0.0543001
0.0345734
0.0603888
-0.0545684
0.0288814
0.0609982
-0.0553062
0.0232557
0.0620377
-0.056412
0.017663
0.063545
-0.0579522
0.0121002
0.0655208
-0.059958
0.00673035
0.0669014
-0.0615315
0.00220198
0.0624391
-0.0579107
0.0374725
-0.0352706
0.0430579
0.0664021
-0.0488707
0.0373224
0.0660189
0.0317331
0.0659781
0.0263019
0.0664294
0.0209698
0.0673698
0.0156869
0.0688279
0.0104685
0.0707391
0.00554058
0.0718294
0.00161054
0.0663691
0.0390831
0.0391227
0.0718377
-0.0445583
0.0337032
0.0714384
0.028395
0.0712863
0.0232467
0.0715778
0.01823
0.0723864
0.0133012
0.0737567
0.00849997
0.0755403
0.00411588
0.0762135
0.000899999
0.069585
0.0399831
0.034279
0.0768356
-0.039277
0.0293099
0.0764076
0.0244104
0.0761857
0.0196461
0.0763421
0.0150202
0.0770124
0.0105097
0.0782672
0.00618842
0.0798616
0.00245393
0.0799479
1.46451e-05
0.0720243
0.0399977
0.0285928
0.0813577
-0.0331148
0.0241249
0.0808755
0.0197298
0.0805808
0.0154542
0.0806177
0.0113109
0.0811557
0.00730413
0.0822739
0.00354391
0.0836218
0.000484467
0.0830074
-0.000747079
0.0732558
0.0392506
0.0220791
0.0853211
-0.0260425
0.0181917
0.084763
0.0143838
0.0843887
0.0106846
0.0843168
0.00711326
0.0847271
0.00370905
0.0856781
0.000671446
0.0866594
-0.00142629
0.0851051
-0.00161522
0.0734448
0.0376354
0.014841
0.0886255
-0.0181455
0.0116069
0.0879971
0.00845145
0.0875441
0.00539494
0.0873733
0.00247225
0.0876498
-0.00025623
0.0884066
-0.00248141
0.0888846
-0.00350795
0.0861317
-0.00249366
0.0724305
0.0351418
0.00696512
0.0912052
-0.00954478
0.00443663
0.0905256
0.00200541
0.0899753
-0.000335408
0.0897142
-0.00258461
0.089899
-0.00456066
0.0903827
-0.00586296
0.0901869
-0.00570431
0.085973
-0.00333462
0.0700608
0.0318071
-0.00144689
0.0931357
-0.000483632
-0.00321299
0.0922917
-0.00490781
0.0916701
-0.00653329
0.0913396
-0.00800854
0.0913743
-0.00913574
0.0915099
-0.00938378
0.090435
-0.00787314
0.0844624
-0.00406409
0.0662517
0.0277431
-0.0102682
0.00932759
-0.0112344
-0.0121599
-0.013013
-0.0136886
-0.0138731
-0.0129062
-0.00987916
-0.00459229
0.0472254
0.00445187
-0.0516773
0.0426092
0.00461622
0.0378021
0.00480711
0.0327803
0.00502177
0.0275118
0.00526853
0.0219532
0.00555859
0.0160555
0.00589769
0.00984424
0.00621129
0.00381651
0.00602773
0.00381651
0.0475614
0.0090009
-0.0521104
0.0428607
0.00931691
0.0379823
0.00968555
0.0329023
0.0101017
0.0275883
0.0105825
0.0219962
0.0111507
0.0160745
0.0118194
0.00984617
0.0124396
0.00382071
0.0120532
0.00763722
0.0481782
0.0137333
-0.0529106
0.0433182
0.0141769
0.038305
0.0146987
0.0331147
0.0152921
0.0277138
0.0159834
0.0220575
0.016807
0.0160935
0.0177834
0.00984442
0.0186887
0.0038122
0.0180854
0.0114494
0.0489702
0.0187101
-0.0539469
0.0438973
0.0192497
0.0387038
0.0198922
0.0333656
0.0206303
0.0278491
0.0214998
0.0221088
0.0225474
0.0160915
0.0238007
0.00981927
0.0249609
0.00379104
0.0241136
0.0152405
0.0497942
0.023963
-0.0550472
0.0444786
0.0245654
0.0390795
0.0252913
0.0335754
0.0261344
0.0279327
0.0271426
0.0221038
0.0283763
0.0160347
0.0298698
0.00974925
0.0312463
0.00374554
0.0301173
0.018986
0.0505043
0.0294782
-0.0560195
0.0449501
0.0301195
0.0393425
0.030899
0.03367
0.0318069
0.0279027
0.0329099
0.0219922
0.0342867
0.0158847
0.0359773
0.00960842
0.0375226
0.00366323
0.0360625
0.0226492
0.0508837
0.0352444
-0.0566499
0.0450981
0.0359051
0.0393075
0.0366896
0.0335055
0.037609
0.0276517
0.0387636
0.0216946
0.0402439
0.0155845
0.0420873
0.00936112
0.0437461
0.00353158
0.0418921
0.0261808
0.0509821
0.0411967
-0.0569344
0.0449691
0.0419181
0.0390124
0.0426463
0.0331011
0.0435203
0.0271786
0.0446862
0.0211953
0.0462272
0.0151116
0.048171
0.0089853
0.0498723
0.00334354
0.0475338
0.0295243
0.0501145
0.0475356
-0.0564534
0.0439459
0.0480867
0.0380091
0.0485831
0.0321411
0.0493883
0.0262683
0.0505589
0.0203591
0.0521364
0.0143863
0.0541438
0.00843401
0.0558246
0.00306239
0.0529055
0.0325867
0.0489957
-0.0563561
0.0427824
0.0367971
0.0308792
0.025026
0.0192102
0.013396
0.00768911
0.00268383
0.0561815
-0.000206533
0.0563857
-0.00020422
0.0565873
-0.000201541
0.0567792
-0.000191913
0.056955
-0.000175777
0.0571087
-0.000153773
0.0572344
-0.00012564
0.0573249
-9.05264e-05
0.0573718
-4.68734e-05
0.0573645
7.22915e-06
0.0573029
6.16704e-05
0.0571738
0.000129106
0.0569644
0.000209347
0.0566605
0.000303936
0.0562455
0.000415009
0.0556999
0.000545565
0.0550017
0.00069823
0.0541221
0.000879613
0.0530363
0.00108577
0.00135897
0.0568882
-0.000413348
0.057089
-0.000405012
0.057283
-0.000395563
0.0574655
-0.000374463
0.0576313
-0.000341593
0.0577748
-0.000297182
0.0578895
-0.000240365
0.0579683
-0.000169394
0.0580025
-8.10141e-05
0.0579846
2.5144e-05
0.0579102
0.000136022
0.0577674
0.000271973
0.0575432
0.000433517
0.0572233
0.000623859
0.056791
0.000847227
0.0562268
0.00110976
0.0555086
0.00141646
0.0546068
0.0017814
0.053498
0.00219464
0.00274654
0.0582786
-0.000598634
0.058459
-0.000585383
0.058633
-0.0005696
0.058795
-0.000536462
0.0589394
-0.000485911
0.0590602
-0.000418029
0.0591512
-0.000331382
0.059205
-0.000223116
0.0592121
-8.82124e-05
0.0591705
6.67635e-05
0.0590692
0.000237303
0.0588972
0.000443991
0.0586418
0.000688951
0.0582883
0.000977318
0.0578203
0.0013153
0.0572174
0.00171259
0.0564581
0.00217576
0.055511
0.00272853
0.0543558
0.00334984
0.00419175
0.0602947
-0.000747219
0.0604381
-0.000728762
0.0605748
-0.000706284
0.0606991
-0.000660729
0.0608049
-0.000591723
0.0608861
-0.000499276
0.0609363
-0.000381571
0.0609474
-0.000234175
0.0609081
-4.89287e-05
0.0608253
0.000149562
0.0606787
0.000383872
0.0604582
0.00066454
0.0601513
0.000995788
0.0597433
0.00138535
0.0592175
0.00184107
0.0585529
0.00237719
0.0577287
0.00299998
0.0567099
0.00374729
0.0554828
0.004577
0.00572764
0.0628575
-0.000837155
0.0629422
-0.000813377
0.0630191
-0.000783215
0.0630828
-0.000724391
0.0631268
-0.000635769
0.0631448
-0.000517289
0.0631293
-0.000366007
0.0630722
-0.000177167
0.0629709
5.24179e-05
0.0628213
0.000299182
0.0626044
0.00060078
0.0623101
0.000958798
0.0619265
0.00137944
0.0614379
0.00187393
0.0608283
0.00245068
0.0600747
0.00313075
0.0591586
0.00391609
0.0580387
0.00486716
0.0567116
0.0059041
0.00739206
0.0658733
-0.000841455
0.0658718
-0.000811838
0.0658604
-0.000771782
0.065834
-0.000698022
0.0657866
-0.000588337
0.0657116
-0.000442371
0.0656024
-0.000256821
0.0654408
-1.5565e-05
0.0652567
0.000236561
0.0650073
0.00054862
0.0646888
0.000919273
0.0642902
0.00135736
0.0637995
0.00187012
0.0631998
0.00247369
0.0624762
0.0031743
0.0616021
0.00400479
0.0605635
0.00495468
0.0593089
0.0061218
0.0578505
0.0073625
0.00922306
0.0692454
-0.000725792
0.0691236
-0.000690025
0.0689882
-0.000636369
0.0688349
-0.000544671
0.0686596
-0.000413105
0.0684553
-0.000238031
0.0681996
-1.09585e-06
0.0679366
0.00024739
0.0676126
0.000560615
0.0672265
0.000934712
0.0667706
0.0013752
0.0662317
0.00189618
0.0655993
0.00250255
0.0648536
0.00321941
0.0639837
0.00404416
0.0629564
0.0050321
0.0617674
0.00614367
0.0603454
0.00754382
0.0587194
0.00898854
0.0112925
0.0728848
-0.000433673
0.0726
-0.000405207
0.0722966
-0.000332978
0.0719716
-0.000219671
0.0716166
-5.81149e-05
0.0712361
0.000142421
0.070843
0.000392083
0.070394
0.000696353
0.0698939
0.00106068
0.0693322
0.00149648
0.0687004
0.00200699
0.067983
0.00261356
0.0671717
0.00331388
0.0662406
0.00415048
0.0651866
0.00509814
0.0639638
0.00625491
0.0625912
0.00751625
0.0609731
0.00916192
0.0591772
0.0107844
0.0135353
0.0767131
4.79481e-05
0.0762095
9.83687e-05
0.0756827
0.000193838
0.0751368
0.000326235
0.074576
0.000502621
0.073989
0.000729416
0.0733685
0.00101266
0.0727038
0.00136101
0.0719891
0.00177537
0.0712126
0.00227302
0.0703675
0.00285204
0.0694354
0.00354575
0.0684127
0.00433654
0.0672643
0.00529882
0.066001
0.00636151
0.0645458
0.00771006
0.0629543
0.00910782
0.0610304
0.0110857
0.0590145
0.0128003
0.0160964
0.0806867
0.000874419
0.0798849
0.000900152
0.0790883
0.000990406
0.0782814
0.00113318
0.0774582
0.00132585
0.0766109
0.00157672
0.0757331
0.0018904
0.0748151
0.00227903
0.0738495
0.00274101
0.0728221
0.00330043
0.0717286
0.00394547
0.0705464
0.00472802
0.069283
0.00559993
0.0678952
0.00668658
0.0664299
0.00782678
0.0647788
0.00936124
0.0631181
0.0107685
0.0611009
0.013103
0.0592804
0.0146208
0.0190207
0.0783425
0.000837209
0.0783354
0.000907208
0.0783181
0.00100774
0.0783022
0.00114908
0.0782912
0.00133687
0.0782847
0.00158323
0.0782848
0.00189026
0.0782915
0.00227234
0.0783101
0.00272239
0.07834
0.00327061
0.0783954
0.00388999
0.0784716
0.00465181
0.0786044
0.0054672
0.0787716
0.00651939
0.0790629
0.00753545
0.0794005
0.00902366
0.0800175
0.0101514
0.0807461
0.0123745
0.0822782
0.0130886
0.0164619
0.0848371
0.082393