/*--------------------------------*- C++ -*----------------------------------*\
| =========                 |                                                 |
| \\      /  F ield         | OpenFOAM: The Open Source CFD Toolbox           |
|  \\    /   O peration     | Version:  4.1                                   |
|   \\  /    A nd           | Web:      www.OpenFOAM.org                      |
|    \\/     M anipulation  |                                                 |
\*---------------------------------------------------------------------------*/
FoamFile
{
    version     2.0;
    format      ascii;
    class       surfaceScalarField;
    location    "1.1";
    object      phi;
}
// * * * * * * * * * * * * * * * * * * * * * * * * * * * * * * * * * * * * * //

dimensions      [0 3 -1 0 0 0 0];

internalField   nonuniform List<scalar> 
3890
(
0.000410883
-0.00473863
0.00432775
0.00124498
-0.010366
0.0095319
0.00226847
-0.0133994
0.0123759
0.00335128
-0.0147598
0.013677
0.00442895
-0.0151415
0.0140638
0.00547384
-0.0150143
0.0139694
0.00647583
-0.0146637
0.0136617
0.00743538
-0.0142456
0.0132861
0.00836913
-0.0138414
0.0129076
-0.0134932
0.0125835
0.00927887
0.00039782
-0.00513645
0.00118753
-0.0111557
0.00214105
-0.0143529
0.00313707
-0.0157559
0.0041195
-0.0161239
0.00506749
-0.0159622
0.00597698
-0.0155732
0.00685215
-0.0151208
0.00770037
-0.0146896
-0.0143243
0.00853142
0.000381697
-0.00551815
0.00112112
-0.0118951
0.00199823
-0.01523
0.00290195
-0.0166596
0.00378513
-0.0170071
0.00463353
-0.0168106
0.00544733
-0.016387
0.00623183
-0.0159053
0.00699175
-0.0154495
-0.0150583
0.00772573
0.000362208
-0.00588036
0.00104516
-0.0125781
0.00183922
-0.0160241
0.00264469
-0.0174651
0.00342353
-0.0177859
0.00416754
-0.0175546
0.00488006
-0.0170995
0.0055672
-0.0165924
0.00623321
-0.0161155
-0.0157018
0.0068768
0.00033904
-0.0062194
0.000959062
-0.0131981
0.00166337
-0.0167284
0.00236457
-0.0181663
0.00303384
-0.0184552
0.00366859
-0.0181894
0.00427497
-0.0177059
0.00485998
-0.0171774
0.00542789
-0.0166834
-0.0162519
0.00597794
0.000311925
-0.00653132
0.000862438
-0.0137486
0.00147039
-0.0173363
0.00206158
-0.0187575
0.00261636
-0.01901
0.0031374
-0.0187104
0.00363333
-0.0182018
0.00411191
-0.017656
0.00457758
-0.0171491
-0.0167045
0.00503017
0.00028068
-0.006812
0.000755148
-0.0142231
0.00126048
-0.0178417
0.00173645
-0.0192334
0.00217241
-0.019446
0.00257595
-0.019114
0.00295775
-0.0185836
0.00332617
-0.0180244
0.00368572
-0.0175086
-0.0170555
0.00403671
0.000245237
-0.00705724
0.000637393
-0.0146152
0.0010344
-0.0182387
0.00139063
-0.0195896
0.00170425
-0.0197596
0.00198726
-0.019397
0.00225202
-0.0188483
0.0025072
-0.0182796
0.00275729
-0.0177587
-0.0173012
0.00300297
0.000205682
-0.00726292
0.000509768
-0.0149193
0.000793429
-0.0185223
0.00102632
-0.0198225
0.00121502
-0.0199483
0.00137543
-0.0195574
0.00152117
-0.0189941
0.00166089
-0.0184193
0.00179907
-0.0178969
-0.0174386
0.00193653
0.000162302
-0.00742522
0.000373289
-0.0151303
0.000539463
-0.0186885
0.000646442
-0.0199295
0.000708656
-0.0200105
0.000745474
-0.0195942
0.00077153
-0.0190201
0.000794087
-0.0184419
0.000818589
-0.0179214
0.000847296
-0.0174673
0.000433391
-0.000433391
0.00142265
-0.000989257
0.00273334
-0.0013107
0.0042026
-0.00146925
0.00572633
-0.00152373
0.00724471
-0.00151839
0.00872775
-0.00148304
0.0101633
-0.00143558
0.0115484
-0.00138511
-0.00133337
0.0128818
0.000434369
-0.000867761
0.00142099
-0.00197587
0.00272826
-0.00261797
0.00419237
-0.00293337
0.0057097
-0.00304107
0.00722116
-0.00302985
0.00869711
-0.00295899
0.0101256
-0.00286409
0.0115038
-0.00276331
-0.00266035
0.0128308
0.000434665
-0.00130243
0.00141871
-0.00295991
0.0027187
-0.00391796
0.00417211
-0.00438678
0.00567664
-0.00454559
0.00717427
-0.00452748
0.00863611
-0.00442084
0.0100506
-0.00427855
0.011415
-0.0041277
-0.00397421
0.0127288
0.000435268
-0.0017377
0.00141473
-0.00393938
0.00270359
-0.00520681
0.00414074
-0.00582394
0.00562601
-0.00603085
0.00710316
-0.00600463
0.00854441
-0.00586209
0.00993855
-0.00567268
0.0112829
-0.00547207
-0.00526884
0.0125775
0.000435864
-0.00217356
0.00140851
-0.00491202
0.00268175
-0.00648005
0.00409662
-0.00723881
0.00555594
-0.00749017
0.00700611
-0.0074548
0.00842092
-0.0072769
0.00978952
-0.00704128
0.0111088
-0.00679139
-0.00653884
0.0123788
0.000436079
-0.00260964
0.00139896
-0.0058749
0.00265121
-0.00773231
0.00403685
-0.00862444
0.00546281
-0.00891613
0.00687915
-0.00887115
0.00826201
-0.00865975
0.00960107
-0.00838035
0.0108919
-0.00808227
-0.00777967
0.0121328
0.000435385
-0.00304503
0.00138454
-0.00682405
0.00260912
-0.0089569
0.00395709
-0.00997242
0.00534067
-0.0102997
0.00671486
-0.0102453
0.00805942
-0.0100043
0.00936555
-0.00968648
0.0106272
-0.0093439
-0.00899072
0.0118382
0.000433099
-0.00347812
0.00136332
-0.00775427
0.00255198
-0.0101456
0.00385185
-0.0112723
0.0051814
-0.0116293
0.0065018
-0.0115657
0.00779827
-0.0113008
0.00906587
-0.0109541
0.0102984
-0.0105764
-0.0101735
0.0114811
0.000428504
-0.00390663
0.00133342
-0.00865918
0.00247643
-0.0112886
0.00371564
-0.0125115
0.00497605
-0.0128897
0.00622531
-0.012815
0.00745579
-0.0125313
0.0086714
-0.0121697
0.00987647
-0.0117815
-0.0113448
0.0110478
0.000421119
0.00129384
0.00238117
0.0035467
0.00472084
0.00587522
0.00700565
0.00812202
0.00924815
0.0104869
0.0134625
-0.000580681
0.0139596
-0.000497134
0.0143814
-0.000421813
0.0147371
-0.000355655
0.0150351
-0.000298007
0.0152829
-0.000247763
0.0154869
-0.000204
0.0156527
-0.000165879
0.0157853
-0.000132577
0.0158886
-0.000103326
0.0159661
-7.74427e-05
0.0160204
-5.43139e-05
0.0160537
-3.33414e-05
0.0160674
-1.36792e-05
0.0160634
4.07457e-06
0.0160469
1.64881e-05
0.0160182
2.86679e-05
0.015978
4.01993e-05
0.0159272
5.08008e-05
5.90611e-05
0.0134096
-0.00115948
0.0139064
-0.000993927
0.0143287
-0.000844153
0.0146859
-0.000712849
0.0149863
-0.000598385
0.015237
-0.000498497
0.0154445
-0.000411442
0.0156142
-0.000335583
0.0157509
-0.000269288
0.0158586
-0.000211042
0.0159407
-0.000159505
0.0159999
-0.000113492
0.0160384
-7.18927e-05
0.0160581
-3.33805e-05
0.0160585
3.70037e-06
0.0160469
2.80611e-05
0.016023
5.25607e-05
0.0159875
7.56743e-05
0.0159414
9.69242e-05
0.000113603
0.013304
-0.00173467
0.0138
-0.00148993
0.0142234
-0.00126755
0.0145837
-0.00107319
0.0148889
-0.00090354
0.0151456
-0.000755193
0.0153599
-0.000625784
0.0155373
-0.000512949
0.0156823
-0.000414277
0.0157988
-0.000327552
0.0158901
-0.000250823
0.015959
-0.000182365
0.0160077
-0.000120588
0.0160381
-6.37634e-05
0.0160485
-6.7193e-06
0.0160454
3.11716e-05
0.0160307
6.72401e-05
0.0160048
0.000101608
0.0159683
0.000133427
0.000158736
0.0131459
-0.00230299
0.0136396
-0.00198364
0.0140641
-0.00169203
0.0144288
-0.00143797
0.0147409
-0.00121561
0.0150064
-0.00102065
0.0152309
-0.00085036
0.0154197
-0.000701701
0.015577
-0.00057154
0.0157064
-0.000457023
0.0158113
-0.00035564
0.0158941
-0.000265181
0.0159571
-0.000183664
0.0160025
-0.000109128
0.0160344
-3.85984e-05
0.0160445
2.10494e-05
0.0160438
6.79153e-05
0.0160319
0.000113542
0.0160094
0.000155884
0.000189806
0.0129361
-0.00286031
0.0134254
-0.00247293
0.013851
-0.00211757
0.0142215
-0.00180854
0.0145427
-0.00153682
0.0148199
-0.00129778
0.0150581
-0.00108858
0.015262
-0.000905614
0.0154356
-0.000745148
0.0155824
-0.000603812
0.0157054
-0.000478628
0.0158072
-0.000366988
0.0158901
-0.000266584
0.0159563
-0.000175271
0.0160084
-9.07241e-05
0.0160353
-5.84306e-06
0.0160535
4.96739e-05
0.0160611
0.000105949
0.0160582
0.000158781
0.000201791
0.0126734
-0.00340096
0.013155
-0.00295449
0.0135809
-0.00254344
0.013958
-0.00218568
0.0142903
-0.00186908
0.0145819
-0.00158946
0.0148374
-0.001344
0.0150604
-0.00112865
0.0152545
-0.000939285
0.0154229
-0.00077217
0.0155682
-0.000623955
0.0156929
-0.000491696
0.0157991
-0.000372814
0.0158889
-0.000265021
0.0159644
-0.000166215
0.0160326
-7.40544e-05
0.0160701
1.21797e-05
0.0161013
7.47106e-05
0.0161222
0.000137902
0.000189879
0.0123565
-0.0039192
0.0128282
-0.00342622
0.0132555
-0.00297078
0.0136413
-0.00257146
0.0139873
-0.00221501
0.0142964
-0.00189863
0.0145721
-0.0016197
0.0148175
-0.00137406
0.0150357
-0.00115745
0.0152294
-0.000965877
0.0154012
-0.000795714
0.0155532
-0.00064374
0.0156875
-0.000507129
0.0158059
-0.000383373
0.0159099
-0.000270217
0.0160015
-0.000165691
0.0160816
-6.7908e-05
0.0161361
2.02263e-05
0.0161862
8.7832e-05
0.000148525
0.01197
-0.00440804
0.012429
-0.00388526
0.0128599
-0.00340163
0.0132586
-0.00297025
0.0136242
-0.00258053
0.0139572
-0.0022317
0.0142594
-0.00192188
0.014533
-0.00164761
0.0147804
-0.00140493
0.0150044
-0.00118983
0.0152072
-0.000998509
0.015391
-0.00082753
0.0155577
-0.000673851
0.0157091
-0.000534791
0.0158469
-0.000407998
0.0159727
-0.000291516
0.0160889
-0.000184032
0.0161933
-8.42426e-05
0.0162719
9.2814e-06
7.29879e-05
0.0115112
-0.00487148
0.0119647
-0.00433877
0.0124035
-0.00384044
0.0128171
-0.00338386
0.0132036
-0.00296697
0.0135623
-0.00259043
0.0138936
-0.00225316
0.0141987
-0.0019527
0.0144794
-0.00168567
0.0147378
-0.00144826
0.014976
-0.00123667
0.0151959
-0.00104738
0.0153992
-0.000877185
0.0155876
-0.000723245
0.0157627
-0.000583015
0.0159254
-0.000454266
0.0160766
-0.000335267
0.0162174
-0.000225037
0.0163505
-0.000123825
-3.9422e-05
0.0109148
-0.00529945
0.0113871
-0.00481105
0.0118651
-0.00431841
0.0123223
-0.00384107
0.01275
-0.00339469
0.013147
-0.00298746
0.0135149
-0.00262105
0.0138561
-0.00229389
0.0141732
-0.00200276
0.0144687
-0.00174375
0.0147449
-0.00151284
0.0150038
-0.0013063
0.0152473
-0.00112072
0.0154772
-0.000953072
0.0156948
-0.000800619
0.0159014
-0.000660945
0.0160982
-0.000531989
0.0162854
-0.000412326
0.0164639
-0.000302254
-0.000210348
0.0167536
-0.00458325
-0.0174698
0.01627
-0.00432739
0.0159337
-0.00398209
0.0157007
-0.00360811
0.0155385
-0.00323252
0.0154254
-0.00287431
0.0153476
-0.00254326
0.015296
-0.00224229
0.0152639
-0.00197067
0.0152462
-0.00172605
0.015239
-0.00150558
0.015239
-0.00130638
0.015244
-0.00112573
0.0152521
-0.000961145
0.0152618
-0.000810329
0.0152721
-0.000671202
0.015282
-0.000541941
0.015291
-0.000421247
0.0152983
-0.000309593
-0.000216704
0.0172196
-0.00403521
-0.0177676
0.0167521
-0.00385993
0.0163847
-0.00361471
0.0161042
-0.00332764
0.0158946
-0.00302292
0.0157399
-0.00271955
0.0156266
-0.00242997
0.0155446
-0.00216027
0.0154861
-0.00191224
0.0154455
-0.00168541
0.0154182
-0.00147829
0.0154008
-0.001289
0.0153907
-0.00111562
0.0153858
-0.000956227
0.0153845
-0.000808999
0.0153855
-0.000672211
0.0153878
-0.000544314
0.0153908
-0.000424208
0.0153937
-0.000312525
-0.000219034
0.0174774
-0.00358102
-0.0179316
0.017066
-0.00344854
0.0167158
-0.00326451
0.016429
-0.00304091
0.0162009
-0.00279477
0.0160228
-0.00254148
0.0158855
-0.00229264
0.0157805
-0.00205523
0.0157007
-0.0018325
0.0156407
-0.00162538
0.015596
-0.00143356
0.0155631
-0.00125611
0.0155393
-0.00109184
0.0155225
-0.000939418
0.015511
-0.000797463
0.0155034
-0.000664616
0.0154987
-0.000539609
0.015496
-0.000421554
0.0154947
-0.000311226
-0.000218353
0.0176536
-0.003181
-0.0180536
0.0172878
-0.00308277
0.0169645
-0.00294124
0.016688
-0.00276435
0.0164577
-0.00256454
0.0162699
-0.00235371
0.0161189
-0.0021416
0.0159985
-0.00193482
0.0159031
-0.0017371
0.0158279
-0.00155019
0.0157689
-0.00137461
0.015723
-0.00121018
0.0156875
-0.00105632
0.0156603
-0.000912208
0.0156397
-0.000776879
0.0156244
-0.000649314
0.0156133
-0.00052852
0.0156056
-0.000413826
0.0156005
-0.00030615
-0.000215137
0.0177872
-0.00282201
-0.0181461
0.0174563
-0.0027519
0.0171579
-0.00264286
0.0168957
-0.00250218
0.0166707
-0.00233951
0.0164811
-0.00216415
0.0163236
-0.00198408
0.016194
-0.00180515
0.0160879
-0.00163104
0.0160016
-0.00146388
0.0159317
-0.00130468
0.0158753
-0.00115381
0.0158301
-0.00101114
0.0157942
-0.000876264
0.0157659
-0.000748581
0.0157439
-0.000627366
0.0157273
-0.000511882
0.0157151
-0.000401661
0.0157067
-0.000297739
-0.000209538
0.0178883
-0.00249806
-0.0182123
0.0175866
-0.00245016
0.0173108
-0.00236702
0.0170639
-0.00225535
0.0168474
-0.00212294
0.0166605
-0.00197724
0.0165012
-0.0018248
0.0163667
-0.00167066
0.0162539
-0.00151827
0.0161599
-0.00136983
0.0160818
-0.00122664
0.0160174
-0.00108938
0.0159645
-0.000958261
0.0159214
-0.000833201
0.0158867
-0.000713878
0.0158592
-0.000599823
0.0158378
-0.000490521
0.0158219
-0.000385684
0.0158106
-0.000286431
-0.00020185
0.0179629
-0.00220502
-0.0182559
0.0176872
-0.00217443
0.0174322
-0.00211201
0.0172007
-0.00202385
0.016994
-0.00191632
0.0168123
-0.00179547
0.0166542
-0.00166675
0.016518
-0.00153447
0.0164015
-0.00140177
0.0163025
-0.00127076
0.0162187
-0.00114287
0.0161483
-0.00101895
0.0160894
-0.000899442
0.0160407
-0.000784487
0.0160008
-0.000673983
0.0159687
-0.000567671
0.0159434
-0.000465218
0.0159242
-0.00036649
0.0159104
-0.000272654
-0.000192379
0.0180161
-0.00193981
-0.0182813
0.0177641
-0.00192234
0.0175284
-0.00187636
0.0173118
-0.00180725
0.0171157
-0.00172021
0.0169405
-0.00162023
0.0167856
-0.00151184
0.0166498
-0.00139876
0.0165318
-0.00128374
0.0164298
-0.00116879
0.0163423
-0.00105531
0.0162676
-0.000944251
0.0162043
-0.000836187
0.0161513
-0.00073141
0.0161073
-0.000629982
0.0160714
-0.000531802
0.0160429
-0.000436689
0.016021
-0.00034463
0.0160052
-0.00025681
-0.000181403
0.0180527
-0.00169956
-0.0182929
0.017822
-0.00169173
0.0176043
-0.00165862
0.0174019
-0.00160485
0.0172164
-0.0015347
0.0170484
-0.00145223
0.0168978
-0.00136128
0.0167641
-0.001265
0.0166461
-0.0011658
0.0165428
-0.00106552
0.016453
-0.000965493
0.0163755
-0.000866692
0.016309
-0.000769757
0.0162527
-0.000675073
0.0162055
-0.000582817
0.0161667
-0.000493006
0.0161356
-0.000405574
0.0161116
-0.000320602
0.016094
-0.000239264
-0.000169179
0.0180764
-0.00148144
-0.0182945
0.0178651
-0.00148044
0.0176637
-0.00145724
0.0174746
-0.00141578
0.0172994
-0.00135949
0.0171389
-0.00129175
0.0169934
-0.00121574
0.0168625
-0.00113414
0.0167458
-0.00104906
0.0166424
-0.000962125
0.0165515
-0.00087459
0.0164722
-0.000787386
0.0164036
-0.000701176
0.0163449
-0.000616394
0.0162954
-0.000533289
0.0162544
-0.000451961
0.0162212
-0.000372431
0.0161955
-0.000294847
0.0161765
-0.000220345
-0.000155941
0.0180905
-0.00128271
-0.0182893
0.0178964
-0.00128634
0.0177099
-0.00127066
0.0175331
-0.00123899
0.0173677
-0.00119408
0.0172146
-0.0011387
0.0170744
-0.0010755
0.016947
-0.00100674
0.0168322
-0.00093425
0.0167295
-0.000859448
0.0166384
-0.000783471
0.0165582
-0.000707191
0.0164883
-0.000631255
0.016428
-0.000556115
0.0163767
-0.000482058
0.016334
-0.000409238
0.0162993
-0.000337737
0.0162722
-0.000267744
0.0162522
-0.000200337
-0.000141893
0.0180978
-0.00110082
-0.0182797
0.0179188
-0.00110734
0.0177454
-0.00109726
0.0175798
-0.00107334
0.0174234
-0.00103776
0.0172775
-0.00099276
0.0171426
-0.000940565
0.0170189
-0.000883071
0.0169065
-0.000821813
0.016805
-0.000758038
0.0167143
-0.00069275
0.0166339
-0.00062674
0.0165632
-0.000560617
0.0165019
-0.000494823
0.0164495
-0.000429658
0.0164056
-0.000365307
0.0163698
-0.000301889
0.0163416
-0.000239616
0.0163208
-0.000179488
-0.000127214
0.0181003
-0.000933341
-0.0182677
0.0179344
-0.000941445
0.0177726
-0.000935452
0.0176168
-0.00091762
0.0174688
-0.000889674
0.0173294
-0.000853434
0.0171996
-0.000810728
0.0170797
-0.000763133
0.0169698
-0.000711942
0.01687
-0.000658216
0.01678
-0.000602827
0.0166998
-0.000546477
0.0166289
-0.000489717
0.016567
-0.000432961
0.0165139
-0.000376503
0.0164691
-0.00032054
0.0164324
-0.000265208
0.0164035
-0.000210727
0.016382
-0.000158
-0.000112051
0.0180995
-0.000778061
-0.0182548
0.0179448
-0.000786763
0.0177931
-0.000783664
0.017646
-0.000770597
0.0175053
-0.000748915
0.0173719
-0.000720086
0.0172468
-0.000685605
0.0171304
-0.000646767
0.0170231
-0.000604641
0.016925
-0.000560115
0.0168361
-0.000513928
0.0167563
-0.000466685
0.0166855
-0.000418869
0.0166234
-0.000370852
0.0165698
-0.000322907
0.0165245
-0.000275225
0.0164872
-0.000227949
0.0164578
-0.00018129
0.0164358
-0.000136042
-9.65272e-05
0.0180968
-0.000632939
-0.018242
0.0179516
-0.000641512
0.0178083
-0.000640384
0.0176687
-0.000631025
0.0175343
-0.000614498
0.0174062
-0.000591985
0.0172853
-0.000564692
0.0171722
-0.000533664
0.0170673
-0.000499766
0.0169709
-0.00046372
0.0168831
-0.000426135
0.016804
-0.000387515
0.0167334
-0.000348267
0.0166712
-0.000308712
0.0166174
-0.000269091
0.0165718
-0.000229578
0.0165341
-0.000190307
0.0165043
-0.000151471
0.016482
-0.000113745
-8.07414e-05
0.0180932
-0.000496122
-0.01823
0.0179557
-0.000504034
0.0178195
-0.000504152
0.0176861
-0.000497657
0.017557
-0.0004854
0.0174334
-0.000468326
0.0173161
-0.000447389
0.0172058
-0.000423407
0.0171031
-0.000397055
0.0170083
-0.000368899
0.0169216
-0.000339418
0.0168431
-0.000309012
0.0167728
-0.00027801
0.0167108
-0.000246673
0.0166569
-0.000215203
0.0166111
-0.000183747
0.0165732
-0.000152423
0.0165431
-0.000121395
0.0165206
-9.12123e-05
-6.47715e-05
0.0180895
-0.000365944
-0.0182197
0.0179582
-0.000372768
0.0178276
-0.000373542
0.0176992
-0.000369234
0.0175743
-0.000360553
0.0174543
-0.000348242
0.0173399
-0.00033302
0.017232
-0.000315494
0.0171311
-0.000296159
0.0170376
-0.000275428
0.0169518
-0.000253654
0.016874
-0.000231135
0.0168041
-0.000208116
0.0167422
-0.000184795
0.0166883
-0.000161328
0.0166424
-0.000137831
0.0166044
-0.000114397
0.0165741
-9.11553e-05
0.0165514
-6.85216e-05
-4.86784e-05
0.0180864
-0.00024083
-0.0182116
0.0179599
-0.000246213
0.0178334
-0.000247098
0.0177086
-0.00024444
0.0175869
-0.000238829
0.0174695
-0.000230802
0.0173573
-0.000220847
0.0172512
-0.000209359
0.0171517
-0.00019666
0.0170593
-0.000183016
0.0169743
-0.000168658
0.0168969
-0.000153779
0.0168273
-0.000138544
0.0167656
-0.000123084
0.0167118
-0.000107506
0.0166659
-9.18872e-05
0.0166278
-7.62944e-05
0.0165974
-6.0815e-05
0.0165746
-4.57297e-05
-3.25099e-05
0.018085
-0.00011969
-0.0182061
0.0179615
-0.000122759
0.0178377
-0.000123242
0.0177151
-0.000121862
0.0175953
-0.000119036
0.0174795
-0.000115037
0.0173688
-0.000110094
0.0172638
-0.000104397
0.0171652
-9.80984e-05
0.0170736
-9.13268e-05
0.0169891
-8.41933e-05
0.0169121
-7.67937e-05
0.0168428
-6.9209e-05
0.0167812
-6.15058e-05
0.0167274
-5.37364e-05
0.0166815
-4.59414e-05
0.0166433
-3.81543e-05
0.0166129
-3.04166e-05
0.0165901
-2.28673e-05
-1.63332e-05
0.0180865
-0.0182062
0.0179637
0.0178405
0.0177186
0.0175996
0.0174846
0.0173745
0.0172701
0.017172
0.0170806
0.0169964
0.0169197
0.0168504
0.0167889
0.0167352
0.0166893
0.0166511
0.0166207
0.0165978
0.0171356
0.000796622
-0.0170849
0.017189
0.00188305
0.0172422
0.00294982
0.0172918
0.00398715
0.0173346
0.00498734
0.0173683
0.00594425
0.0173909
0.00685411
0.0174037
0.00771294
0.017397
0.00853819
0.009206
0.0167972
0.000745088
-0.0167457
0.0168655
0.00181473
0.0169493
0.00286611
0.017046
0.0038904
0.0171532
0.00488014
0.0172682
0.00582927
0.0173881
0.00673417
0.0175121
0.00758897
0.0176299
0.00842039
0.00906831
0.0165053
0.000696682
-0.0164569
0.0165806
0.00173944
0.0166812
0.00276553
0.0168051
0.0037665
0.0169501
0.0047351
0.0171141
0.00566534
0.0172947
0.00655352
0.0174922
0.00739151
0.0177021
0.00821045
0.00883886
0.0162566
0.000650344
-0.0162103
0.0163383
0.00165781
0.0164538
0.00264995
0.0166016
0.0036187
0.0167797
0.00455707
0.0169859
0.00545912
0.0172184
0.00632098
0.0174766
0.00713338
0.0177587
0.00792833
0.00854396
0.016043
0.00060573
-0.0159984
0.0161299
0.00157089
0.016258
0.00252193
0.0164255
0.00345115
0.0166308
0.00435182
0.0168718
0.00521812
0.0171466
0.00604614
0.0174535
0.00682645
0.0177932
0.00758873
0.00819098
0.0158586
0.000562462
-0.0158153
0.0159498
0.00147966
0.0160879
0.00238381
0.0162715
0.0032676
0.0164987
0.00412457
0.0167678
0.00494906
0.0170767
0.00573717
0.0174232
0.00648003
0.0178088
0.00720304
0.00778753
0.0156986
0.000520186
-0.0156563
0.0157934
0.00138484
0.0159398
0.00223743
0.0161364
0.00307103
0.0163815
0.00387947
0.0166732
0.0046573
0.0170097
0.00540071
0.017388
0.0061017
0.0178103
0.00678076
0.00734187
0.0155595
0.000478639
-0.015518
0.0156573
0.00128705
0.0158104
0.0020843
0.0160176
0.00286387
0.0162771
0.00361991
0.0165872
0.00434725
0.0169458
0.00504214
0.0173498
0.00569763
0.0178011
0.00632945
0.00686167
0.0154385
0.000437628
-0.0153975
0.0155388
0.00118678
0.0156974
0.00192563
0.0159132
0.00264808
0.0161845
0.00334863
0.0165093
0.00402243
0.0168857
0.0046658
0.0173105
0.00527284
0.0177848
0.00585509
0.00635358
0.0153334
0.000397019
-0.0152927
0.0154357
0.00108444
0.0155989
0.0017624
0.0158218
0.00242523
0.0161026
0.00306782
0.0164394
0.00368563
0.01683
0.00427516
0.0172715
0.0048314
0.0177641
0.00536243
0.00582321
0.0152423
0.000356712
-0.015202
0.0153464
0.000980371
0.0155134
0.0015954
0.015742
0.0021966
0.0160306
0.00277923
0.0163771
0.00333914
0.0167793
0.00387299
0.0172341
0.00437658
0.0177412
0.00485527
0.00527517
0.0151639
0.000316634
-0.0151238
0.0152694
0.000874855
0.0154395
0.00142529
0.0156729
0.0019632
0.0159679
0.00248428
0.0163223
0.00298477
0.0167337
0.00346154
0.0171992
0.00391107
0.0177178
0.00433668
0.00471328
0.015097
0.000276729
-0.0150571
0.0152037
0.000768122
0.0153764
0.00125258
0.0156137
0.00172587
0.0159139
0.00218414
0.0162747
0.002624
0.0166936
0.00304262
0.0171676
0.00343706
0.0176951
0.00380915
0.00414067
0.0150405
0.000236955
-0.0150007
0.0151483
0.000660364
0.0153231
0.00107771
0.0155637
0.0014853
0.0158681
0.00187974
0.016234
0.00225806
0.0166589
0.00261775
0.0171396
0.00295636
0.017674
0.00327472
0.0035599
0.0149936
0.000197281
-0.0149539
0.0151022
0.000551745
0.0152789
0.000901056
0.0155221
0.00124206
0.01583
0.00157187
0.0162001
0.00188796
0.0166297
0.00218817
0.0171156
0.00247048
0.0176552
0.00273509
0.0029731
0.0149556
0.000157687
-0.014916
0.0150649
0.000442402
0.0152431
0.000722908
0.0154885
0.000996627
0.0157992
0.00126121
0.0161726
0.00151457
0.0166058
0.00175493
0.0170956
0.0019807
0.017639
0.00219171
0.00238205
0.0149258
0.000118168
-0.0148863
0.0150357
0.000332458
0.0152151
0.000543526
0.0154623
0.000749402
0.0157752
0.000948288
0.0161512
0.00113859
0.0165872
0.00131892
0.0170799
0.00148808
0.0176258
0.00164575
0.0017882
0.0149035
7.8722e-05
-0.0148641
0.015014
0.000222031
0.0151943
0.000363146
0.015443
0.000500739
0.0157577
0.00063359
0.0161357
0.000760611
0.0165737
0.00088085
0.0170683
0.000993468
0.017616
0.00109814
0.0011926
0.0148883
3.93444e-05
-0.0148489
0.0149991
0.000111181
0.0151803
0.000181917
0.0154302
0.000250881
0.0157463
0.000317457
0.0161259
0.000381094
0.0165654
0.000441289
0.0170613
0.000497572
0.0176098
0.000549659
0.000596287
0.0148788
-0.0148395
0.01499
0.0151719
0.0154228
0.0157403
0.0161214
0.0165627
0.0170602
0.0176099
0.00846021
0.0129593
-0.0120722
-0.0093473
0.00749482
0.0133237
-0.0123583
0.00650157
0.013753
-0.0127598
0.00547226
0.0142249
-0.0131956
0.00440595
0.0147136
-0.0136473
0.00331471
0.0151493
-0.0140581
0.00222872
0.0153251
-0.0142392
0.00121332
0.0147517
-0.0137363
0.000395796
0.0124263
-0.0116088
0.00648915
-0.00609336
0.00759572
0.0138551
-0.00849149
0.00670744
0.014212
0.00580728
0.0146532
0.00488086
0.0151513
0.00392163
0.0156728
0.00293862
0.0161323
0.00196191
0.0163019
0.0010555
0.0156581
0.000337046
0.0131447
0.0068262
0.00676586
0.0146567
-0.00756742
0.00595341
0.0150244
0.005132
0.0154746
0.00429317
0.0159902
0.00343108
0.0165349
0.00255293
0.0170105
0.00168689
0.0171679
0.000893125
0.0164519
0.000277164
0.0137607
0.00710336
0.00590663
0.0153642
-0.00661413
0.00518299
0.0157481
0.00444843
0.0162092
0.00369976
0.0167388
0.00293478
0.0172999
0.00216175
0.0177835
0.00140794
0.0179217
0.000729146
0.0171307
0.000217316
0.0142725
0.00732068
0.00501287
0.0159743
-0.00562305
0.00438612
0.0163748
0.00374664
0.0168487
0.00309426
0.0173912
0.00243044
0.0179637
0.00176549
0.0184485
0.00112654
0.0185607
0.000564875
0.0176923
0.000158047
0.0146794
0.00747873
0.00408724
0.0164837
-0.00459659
0.00356223
0.0168998
0.00302409
0.0173868
0.00247427
0.017941
0.00191688
0.0185211
0.00136424
0.0190011
0.000843414
0.0190815
0.00040097
0.0181348
9.96431e-05
0.0149807
0.00757837
0.00313412
0.0168899
-0.00354036
0.00271412
0.0173198
0.00228212
0.0178188
0.0018404
0.0183828
0.00139471
0.0189668
0.00095886
0.019437
0.000559458
0.0194809
0.000237596
0.0184567
4.24298e-05
0.0151759
0.0076208
0.00215915
0.0171906
-0.00245978
0.00184708
0.0176319
0.00152503
0.0181409
0.00119593
0.0187119
0.000866443
0.0192963
0.000551138
0.0197523
0.000276337
0.0197557
7.25151e-05
0.0186605
-1.35062e-05
0.0152619
0.0076073
0.00116968
0.017383
-0.00136216
0.000968053
0.0178335
0.000758701
0.0183502
0.000546029
0.0189245
0.000336196
0.0195061
0.000143427
0.019945
-1.05756e-05
0.0199097
-8.37714e-05
0.0187337
-6.64201e-05
0.0152445
0.00754088
0.000173533
-0.000257832
8.56456e-05
-6.03163e-06
-0.000101644
-0.00018976
-0.000255205
-0.000275035
-0.00022986
-0.000115652
0.0121329
0.00126332
-0.0133962
0.0108247
0.00130811
0.00946846
0.00135629
0.00805957
0.00140889
0.0065939
0.00146567
0.00507345
0.00152045
0.00351977
0.00155368
0.00200296
0.00151681
0.000699249
0.00130371
0.00069925
0.0120744
0.00252241
-0.0133335
0.010771
0.0026115
0.00941997
0.00270737
0.00801672
0.00281214
0.00655721
0.00292518
0.00504351
0.00303415
0.00349706
0.00310013
0.00198828
0.00302559
0.000694808
0.00259718
0.00139406
0.0119573
0.00377266
-0.0132076
0.0106635
0.00390535
0.00932285
0.00404799
0.00793091
0.00420407
0.00648371
0.00437238
0.00498366
0.0045342
0.0034526
0.00463119
0.00196084
0.00451736
0.000683624
0.00387439
0.00207768
0.011781
0.00500912
-0.0130175
0.0105018
0.0051846
0.00917692
0.00537284
0.00780197
0.00557903
0.00637326
0.00580109
0.00489371
0.00601375
0.00338569
0.00613921
0.00191932
0.00598373
0.000667242
0.00512646
0.00274492
0.0115466
0.00622744
-0.0127649
0.0102866
0.00644461
0.00898244
0.00667701
0.00762981
0.00693166
0.00622556
0.00720535
0.00477331
0.007466
0.00329607
0.00761645
0.00186373
0.00741607
0.000645448
0.00634475
0.00339037
0.0112534
0.00742226
-0.0124482
0.0100174
0.00768054
0.00873889
0.00795556
0.00741384
0.00825671
0.00603994
0.00857925
0.00462181
0.00888413
0.00318328
0.00905498
0.00179383
0.00880551
0.00061813
0.00752045
0.0040085
0.0109075
0.00859223
-0.0120774
0.00969767
0.00889032
0.00844745
0.00920577
0.00715382
0.00955033
0.00581548
0.00991759
0.00443821
0.0102614
0.00304656
0.0104466
0.00170922
0.0101429
0.000585177
0.00864449
0.00459368
0.0105039
0.00973304
-0.0116447
0.00932148
0.0100727
0.00810334
0.0104239
0.00684574
0.0108079
0.00554895
0.0112144
0.00422023
0.0115901
0.00288457
0.0117823
0.00160931
0.0114181
0.000546446
0.00970736
0.00514012
0.0100649
0.0108657
-0.0111975
0.00890021
0.0112374
0.00770897
0.0116151
0.0064867
0.0120302
0.00523644
0.0124646
0.00396491
0.0128617
0.00269567
0.0130515
0.00149348
0.0126203
0.000501838
0.010699
0.00564196
0.00947486
-0.0106814
0.00835393
0.00720928
0.00604389
0.00486123
0.00366482
0.00247719
0.00136116
0.000451396
0.0157259
-6.98556e-05
0.0157923
-6.6353e-05
0.0158515
-5.92104e-05
0.0159012
-4.96982e-05
0.0159395
-3.83346e-05
0.015965
-2.5542e-05
0.0159768
-1.17312e-05
0.0159729
3.86128e-06
0.0159468
2.61033e-05
0.0158983
4.85566e-05
0.0158253
7.29716e-05
0.0157253
0.000100002
0.015595
0.000130255
0.0154306
0.000164419
0.0152273
0.000203296
0.0149795
0.000247822
0.0146804
0.000299056
0.0143223
0.000358142
0.0138963
0.000425978
0.000500141
0.015744
-0.000135318
0.0158057
-0.000128118
0.0158603
-0.000113734
0.0159052
-9.46703e-05
0.0159389
-7.19645e-05
0.0159598
-4.6502e-05
0.0159673
-1.92263e-05
0.015957
1.42147e-05
0.0159255
5.75263e-05
0.0158719
0.00010218
0.0157941
0.000150785
0.0156895
0.000204616
0.0155549
0.000264882
0.0153863
0.000332946
0.0151792
0.000410401
0.0149279
0.000499111
0.0146258
0.000601188
0.0142651
0.000718899
0.0138367
0.000854364
0.00100328
0.0157791
-0.000191494
0.0158314
-0.000180411
0.0158764
-0.000158726
0.0159118
-0.000130104
0.015936
-9.61284e-05
0.0159476
-5.81096e-05
0.0159463
-1.78719e-05
0.015924
3.65015e-05
0.0158821
9.9429e-05
0.0158185
0.000165742
0.0157312
0.000238124
0.0156174
0.000318349
0.0154741
0.000408197
0.0152974
0.000509684
0.0150826
0.000625166
0.0148243
0.000757426
0.0145159
0.000909614
0.0141497
0.00108504
0.0137166
0.00128749
0.00151233
0.0158307
-0.000233654
0.0158687
-0.000218479
0.0158994
-0.000189364
0.0159203
-0.000151012
0.0159298
-0.000105671
0.015927
-5.53119e-05
0.015913
-3.83801e-06
0.0158727
7.67655e-05
0.0158146
0.000157558
0.0157358
0.00024452
0.015634
0.000339959
0.0155064
0.000445932
0.0153499
0.000564718
0.0151606
0.000698926
0.0149342
0.000851621
0.0146652
0.00102645
0.0143472
0.00122759
0.0139731
0.00145917
0.0135337
0.00172683
0.00202856
0.0158946
-0.000256849
0.0159133
-0.000237222
0.0159247
-0.000200789
0.0159269
-0.00015317
0.0159185
-9.72809e-05
0.0158994
-3.61672e-05
0.0158549
4.06675e-05
0.0157957
0.000135945
0.0157182
0.000235005
0.0156204
0.000342327
0.0155
0.000460358
0.0153544
0.000591532
0.0151806
0.000738585
0.0149748
0.000904683
0.0147329
0.00109355
0.0144497
0.00130962
0.0141192
0.00155807
0.0137348
0.0018436
0.0132885
0.00217314
0.0025521
0.0159726
-0.0002561
0.0159673
-0.000232002
0.0159547
-0.000188114
0.0159322
-0.000130722
0.0158985
-6.35923e-05
0.0158561
6.24511e-06
0.0157827
0.000114075
0.015697
0.00022162
0.0155943
0.000337751
0.0154721
0.000464523
0.0153281
0.000604341
0.0151597
0.000759943
0.0149638
0.000934439
0.0147371
0.00113145
0.0144754
0.00135522
0.0141742
0.00161081
0.0138281
0.00190422
0.0134311
0.00224058
0.0129776
0.00262658
0.00308156
0.0160546
-0.000225744
0.0160193
-0.000196679
0.0159768
-0.000145594
0.0159259
-7.9852e-05
0.015873
-1.068e-05
0.01578
9.92151e-05
0.0156811
0.000213007
0.015567
0.000335696
0.0154357
0.000469039
0.0152852
0.000614995
0.0151134
0.000776144
0.0149179
0.000955468
0.014696
0.00115639
0.0144445
0.00138289
0.0141601
0.0016396
0.013839
0.00193199
0.0134764
0.00226674
0.0130675
0.00264957
0.0126088
0.00308521
0.00361297
0.0161565
-0.000160611
0.0160871
-0.000127313
0.0160117
-7.01528e-05
0.0159347
-2.84057e-06
0.0158181
0.00010588
0.0156975
0.000219845
0.0155646
0.000345921
0.0154168
0.000483447
0.0152525
0.000633329
0.0150698
0.000797716
0.0148666
0.00097935
0.0146406
0.00118143
0.0143894
0.00140767