/*--------------------------------*- C++ -*----------------------------------*\
| =========                 |                                                 |
| \\      /  F ield         | OpenFOAM: The Open Source CFD Toolbox           |
|  \\    /   O peration     | Version:  4.1                                   |
|   \\  /    A nd           | Web:      www.OpenFOAM.org                      |
|    \\/     M anipulation  |                                                 |
\*---------------------------------------------------------------------------*/
FoamFile
{
    version     2.0;
    format      ascii;
    class       surfaceScalarField;
    location    "11.9";
    object      phi;
}
// * * * * * * * * * * * * * * * * * * * * * * * * * * * * * * * * * * * * * //

dimensions      [0 3 -1 0 0 0 0];

internalField   nonuniform List<scalar> 
3890
(
0.000264223
0.00160884
-0.00187306
0.00194659
5.19077e-05
-0.00173427
0.00562594
-0.00459875
0.000919396
0.0115943
-0.0113505
0.00538215
0.019752
-0.0192366
0.0110789
0.0296416
-0.0273239
0.0174343
0.0406104
-0.0348915
0.0239227
0.0521034
-0.0415109
0.0300179
0.0635495
-0.0473122
0.0358661
-0.0511832
0.0403435
0.0743891
0.000526745
0.0010821
0.0030761
-0.00249744
0.00822233
-0.00974498
0.0159742
-0.0191023
0.0257298
-0.0289922
0.0365666
-0.0381608
0.0475963
-0.0459212
0.0581961
-0.0521107
0.0677767
-0.0568928
-0.0602273
0.0768209
0.000886034
0.000196064
0.00448732
-0.00609873
0.0111639
-0.0164215
0.0203295
-0.028268
0.0307685
-0.0394312
0.0412733
-0.0486656
0.0510312
-0.0556791
0.0596727
-0.0607522
0.0671971
-0.0644172
-0.0670549
0.0740247
0.00133551
-0.00113945
0.00608458
-0.0108478
0.0140541
-0.0243911
0.0238465
-0.0380604
0.0338321
-0.0494168
0.0429241
-0.0577575
0.0507169
-0.063472
0.0573121
-0.0673475
0.0630338
-0.0701388
-0.0723212
0.0683
0.00185837
-0.00299782
0.00768975
-0.0166792
0.0163857
-0.033087
0.0258406
-0.0475153
0.0344736
-0.0580498
0.0416741
-0.064958
0.047541
-0.0693389
0.0524846
-0.072291
0.0569343
-0.0745885
-0.0766871
0.0613002
0.00241584
-0.00541366
0.00905493
-0.0233183
0.0177215
-0.0417535
0.0260518
-0.0558456
0.0329277
-0.0649258
0.0382917
-0.070322
0.0425759
-0.0736231
0.0462783
-0.0759934
0.0497793
-0.0780894
-0.0801848
0.053277
0.00294299
-0.00835665
0.00993359
-0.0303089
0.0178716
-0.0496916
0.0246561
-0.0626301
0.0297697
-0.0700394
0.0335571
-0.0741093
0.0365765
-0.0766426
0.0392782
-0.0786951
0.0419197
-0.0807309
-0.0828818
0.0446167
0.00335638
-0.011713
0.0101705
-0.037123
0.0169107
-0.0564318
0.0220439
-0.0677633
0.0255668
-0.0735622
0.028037
-0.0765795
0.0300028
-0.0786084
0.0318108
-0.0805031
0.0336192
-0.0825393
-0.0847343
0.0354717
0.00357788
-0.0152909
0.00973917
-0.0432843
0.0150639
-0.0617564
0.0186201
-0.0713195
0.0207603
-0.0757025
0.0221112
-0.0779304
0.0231425
-0.0796397
0.0240962
-0.0814568
0.0250526
-0.0834957
-0.0857084
0.0260267
0.00356244
-0.0188533
0.00874128
-0.0484632
0.0126011
-0.0656163
0.014726
-0.0734444
0.0156699
-0.0766463
0.0160352
-0.0782958
0.0161918
-0.0797962
0.0162964
-0.0815614
0.0163864
-0.0835857
0.0164614
-0.0857834
-0.000519686
0.000519686
-0.00158461
0.00106493
-0.00294524
0.00136063
-0.00446242
0.00151718
-0.00605972
0.0015973
-0.00770149
0.00164177
-0.00937873
0.00167724
-0.0110996
0.00172084
-0.012886
0.00178644
0.00189075
-0.0147768
-0.000465143
0.000984829
-0.0014222
0.00202198
-0.00263965
0.00257808
-0.0039774
0.00285493
-0.00535338
0.00297328
-0.00672355
0.00301193
-0.00806964
0.00302334
-0.00939236
0.00304356
-0.0107073
0.00310135
0.00323703
-0.0120536
-0.000370146
0.00135497
-0.00113962
0.00279146
-0.0020997
0.00353816
-0.00311381
0.00386904
-0.00409276
0.00395223
-0.00497859
0.00389777
-0.00573576
0.00378051
-0.0063494
0.0036572
-0.00682426
0.00357621
0.00359039
-0.00717762
-0.000261374
0.00161635
-0.000801535
0.00333162
-0.00143778
0.0041744
-0.00203958
0.00447084
-0.002513
0.00442565
-0.0027869
0.00417166
-0.00280452
0.00379813
-0.00252342
0.00337611
-0.00192443
0.00297721
0.00273237
-0.0010664
-0.000164578
0.00178093
-0.000474179
0.00364122
-0.000764118
0.00446434
-0.000909853
0.00461658
-0.000815338
0.00433114
-0.000400048
0.00375637
0.000410069
0.00298801
0.00168584
0.00210034
0.00349173
0.00117132
0.00037653
0.00584757
-9.66222e-05
0.00187755
-0.000198164
0.00374276
-0.000138445
0.00440462
0.000210099
0.00426803
0.000952526
0.00358871
0.00218037
0.00252853
0.00398123
0.00118715
0.00643714
-0.000355571
0.00963539
-0.00202693
-0.00378602
0.0137979
-5.93883e-05
0.00193694
3.12371e-05
0.00365214
0.000462451
0.00397341
0.00139481
0.00333568
0.00296039
0.00202313
0.00527338
0.000215534
0.00843147
-0.00197094
0.012505
-0.00442907
0.0175135
-0.00703545
-0.0101832
0.0239106
-3.81753e-05
0.00197511
0.000260508
0.00335345
0.00115613
0.00307778
0.00286222
0.00162958
0.00556117
-0.000675824
0.00939505
-0.00361834
0.0144379
-0.00701376
0.0206833
-0.0106745
0.0280453
-0.0143974
-0.0190393
0.0369014
6.92667e-06
0.00196818
0.00059286
0.00276752
0.00213291
0.00153773
0.00491643
-0.00115394
0.00916179
-0.00492118
0.0149715
-0.00942803
0.022314
-0.0143563
0.0309808
-0.0193413
0.0408474
-0.0242641
-0.0296269
0.0514351
9.51204e-05
0.00112837
0.00358549
0.00781371
0.0139714
0.0219777
0.0315442
0.0422208
0.0538229
0.0645394
-0.0159991
0.00122232
-0.0172167
0.00121766
-0.0184029
0.00118619
-0.0195493
0.00114633
-0.0206484
0.00109917
-0.0216924
0.001044
-0.0226729
0.000980502
-0.0235816
0.000908666
-0.0244105
0.000828853
-0.0251523
0.000741828
-0.0258011
0.000648806
-0.0263526
0.000551502
-0.0268048
0.000452188
-0.0271585
0.000353727
-0.0274181
0.000259548
-0.0275916
0.000173581
-0.0276919
0.000100226
-0.0277354
4.35404e-05
-0.0277398
4.4108e-06
-2.21526e-05
-0.0131149
0.00228371
-0.0141937
0.00229644
-0.0152656
0.00225809
-0.016324
0.00220467
-0.0173618
0.00213702
-0.0183709
0.00205311
-0.0193424
0.00195197
-0.0202669
0.00183321
-0.0211351
0.00169707
-0.0219378
0.0015445
-0.0226663
0.00137727
-0.0233129
0.00119814
-0.0238717
0.001011
-0.0243391
0.000821061
-0.0247144
0.000634946
-0.0250015
0.000460582
-0.0252085
0.000307266
-0.0253503
0.00018536
-0.025448
0.000102116
5.44131e-05
-0.00792747
0.00303355
-0.00871776
0.00308674
-0.00953818
0.00307851
-0.0103863
0.00305278
-0.0112569
0.00300766
-0.0121432
0.00293936
-0.0130367
0.00284553
-0.0139284
0.00272483
-0.014808
0.00257674
-0.015665
0.00240148
-0.016488
0.00220024
-0.0172654
0.0019755
-0.0179856
0.00173128
-0.0186381
0.00147355
-0.0192139
0.0012107
-0.0197069
0.000953619
-0.0201155
0.000715791
-0.0204451
0.000514986
-0.0207172
0.00037426
0.000303297
-0.00134146
0.00330861
-0.00172639
0.00347167
-0.00217339
0.0035255
-0.00267676
0.00355616
-0.00324165
0.00357255
-0.00386647
0.00356418
-0.0045457
0.00352476
-0.00527277
0.0034519
-0.00604031
0.00334429
-0.00683966
0.00320082
-0.00766055
0.00302113
-0.00849113
0.00280609
-0.00931801
0.00255815
-0.0101263
0.00228182
-0.0109
0.00198442
-0.0116228
0.00167642
-0.0122793
0.00137227
-0.0128562
0.0010919
-0.013355
0.000873018
0.000773021
0.00599728
0.0031589
0.00602466
0.00344429
0.00598037
0.0035698
0.00587572
0.00366081
0.0056964
0.00375186
0.00543584
0.00382473
0.00509509
0.00386551
0.00467602
0.00387096
0.00418029
0.00384002
0.0036106
0.00377051
0.00297149
0.00366025
0.00226937
0.0035082
0.00151274
0.00331478
0.000712673
0.00308189
-0.000116392
0.00281348
-0.000956968
0.002517
-0.00178776
0.00220306
-0.00258255
0.0018867
-0.00330805
0.00159852
0.00141514
0.0142398
0.002717
0.0145407
0.00314343
0.0147857
0.00332476
0.0149963
0.00345023
0.0151481
0.00360007
0.0152288
0.00374405
0.0152368
0.00385752
0.0151695
0.00393826
0.0150222
0.00398732
0.0147908
0.00400188
0.0144729
0.00397815
0.0140675
0.00391363
0.0135751
0.00380719
0.0129981
0.0036589
0.0123413
0.00347031
0.011613
0.00324525
0.010826
0.00299011
0.00999936
0.0027133
0.00917156
0.00242632
0.0021998
0.0243281
0.0022995
0.0246501
0.00282151
0.0249647
0.00301009
0.0252918
0.00312314
0.025595
0.00329685
0.0258639
0.00347522
0.0260974
0.00362397
0.0262888
0.0037469
0.0264277
0.00384837
0.0265051
0.0039245
0.0265131
0.00397013
0.0264449
0.00398184
0.0262944
0.00395773
0.0260566
0.0038967
0.0257278
0.00379912
0.0253061
0.00366693
0.0247915
0.00350468
0.0241857
0.00331912
0.0234944
0.00311764
0.00292009
0.0369885
0.00221234
0.0371165
0.00269358
0.0373359
0.00279066
0.0376094
0.0028496
0.0378914
0.00301488
0.0381868
0.00317976
0.0384941
0.00331669
0.0388002
0.00344083
0.039092
0.0035566
0.0393589
0.00365757
0.0395911
0.00373792
0.0397791
0.00379385
0.0399136
0.00382322
0.0399864
0.00382384
0.0399894
0.00379613
0.0399162
0.00374015
0.0397586
0.00366226
0.0395142
0.00356351
0.0391635
0.00346838
0.0033503
0.0512596
0.00238781
0.0513109
0.00264231
0.0515613
0.00254021
0.0518471
0.00256382
0.0521503
0.00271172
0.0524882
0.00284181
0.0528479
0.00295705
0.0532154
0.00307332
0.0535844
0.0031876
0.0539502
0.00329172
0.0543068
0.00338136
0.0546479
0.00345271
0.0549665
0.00350466
0.0552566
0.00353374
0.05551
0.00354276
0.055722
0.0035281
0.055882
0.00350231
0.0559897
0.0034558
0.05603
0.00342804
0.0033893
0.0648486
0.0020787
0.0655448
0.00194609
0.0661353
0.00194966
0.0666379
0.00206124
0.0671476
0.00220204
0.0676516
0.00233778
0.0681405
0.00246819
0.06862
0.00259381
0.0690957
0.00271187
0.0695705
0.00281687
0.0700449
0.00290704
0.0705195
0.00297803
0.0709927
0.00303154
0.0714641
0.00306232
0.0719289
0.00307794
0.0723871
0.00306993
0.0728316
0.00305783
0.0732628
0.00302461
0.0736806
0.00301019
0.00298864
0.0898333
0.00302295
-0.0907776
0.088822
0.00295744
0.0879029
0.00286871
0.0871223
0.00284187
0.086465
0.00285928
0.0859052
0.00289763
0.0854243
0.00294904
0.0850119
0.00300625
0.0846591
0.00306469
0.0843584
0.00311753
0.0841015
0.00316398
0.0838824
0.00319711
0.0836931
0.0032208
0.0835294
0.00322608
0.0833825
0.00322485
0.0832495
0.00320291
0.0831223
0.003185
0.0829997
0.00314727
0.0828798
0.00313009
0.00309576
0.099649
0.00319622
-0.0998222
0.09935
0.00325644
0.0989754
0.00324326
0.0986062
0.00321108
0.0982661
0.00319942
0.0979536
0.00321011
0.0976676
0.00323504
0.0974097
0.00326412
0.0971796
0.00329481
0.0969766
0.00332059
0.096797
0.00334355
0.0966391
0.00335498
0.0964978
0.00336217
0.0963715
0.00335234
0.096254
0.00334232
0.0961454
0.00331153
0.096039
0.00329144
0.0959385
0.00324773
0.0958377
0.00323085
0.00318895
0.106574
0.00335991
-0.106738
0.106499
0.00333176
0.10643
0.00331256
0.106363
0.00327776
0.106309
0.00325295
0.106271
0.00324816
0.106246
0.00326016
0.106233
0.00327776
0.106229
0.00329869
0.106234
0.00331513
0.106246
0.00333122
0.106265
0.00333662
0.106286
0.00334133
0.106308
0.00332964
0.106329
0.00332167
0.106348
0.00329268
0.106362
0.00327765
0.106372
0.00323731
0.106377
0.00322564
0.00318666
0.112029
0.00341361
-0.112082
0.112067
0.00329365
0.112145
0.00323438
0.112235
0.00318755
0.112338
0.00315032
0.112457
0.00312882
0.112592
0.00312499
0.11274
0.00312968
0.112898
0.00314108
0.113063
0.0031501
0.113233
0.00316151
0.113405
0.00316426
0.113577
0.00316916
0.113747
0.00315991
0.113912
0.00315633
0.114071
0.00313423
0.114223
0.00312557
0.114365
0.00309529
0.114502
0.00308859
0.00305984
0.116803
0.00332989
-0.116719
0.116925
0.0031719
0.117081
0.00307803
0.117255
0.00301337
0.117442
0.0029639
0.117643
0.00292786
0.117859
0.0029084
0.11809
0.00289901
0.118332
0.002899
0.118583
0.00289919
0.118841
0.0029039
0.119102
0.00290271
0.119366
0.00290538
0.119628
0.00289747
0.119889
0.00289553
0.120144
0.00287968
0.120395
0.00287464
0.120636
0.00285436
0.120874
0.0028503
0.00283299
0.121485
0.00316942
-0.121324
0.121656
0.0030006
0.121851
0.00288322
0.122064
0.0028002
0.12229
0.00273825
0.122527
0.00269023
0.122778
0.0026575
0.123042
0.00263516
0.123318
0.0026235
0.123602
0.00261437
0.123895
0.0026111
0.124193
0.00260473
0.124496
0.00260293
0.124799
0.00259428
0.125103
0.00259107
0.125404
0.00257874
0.125704
0.00257437
0.125998
0.00256074
0.126291
0.00255747
0.00254797
0.126355
0.00297418
-0.12616
0.126554
0.00280207
0.126766
0.00267082
0.126993
0.00257337
0.127231
0.00250005
0.127479
0.00244204
0.127738
0.00239856
0.128008
0.00236532
0.128288
0.00234305
0.128578
0.00232509
0.128875
0.0023138
0.129178
0.00230179
0.129486
0.00229465
0.129797
0.00228375
0.13011
0.00227773
0.130423
0.00226636
0.130736
0.00226099
0.131046
0.00225052
0.131357
0.00224705
0.00224106
0.13144
0.00275416
-0.13122
0.131658
0.00258418
0.131881
0.00244746
0.132113
0.00234116
0.132354
0.00225914
0.132603
0.00219328
0.13286
0.00214157
0.133125
0.00209987
0.1334
0.00206889
0.133681
0.00204337
0.13397
0.00202496
0.134264
0.00200768
0.134564
0.00199546
0.134866
0.00198172
0.135171
0.0019726
0.135476
0.00196064
0.135784
0.00195376
0.13609
0.00194412
0.136397
0.0019401
0.00193491
0.136625
0.00250948
-0.136381
0.136863
0.00234682
0.137099
0.00221079
0.13734
0.00210085
0.137585
0.00201367
0.137836
0.00194265
0.138092
0.0018854
0.138354
0.00183792
0.138622
0.00180069
0.138896
0.00176952
0.139175
0.00174562
0.139459
0.00172414
0.139747
0.00170789
0.140037
0.00169165
0.140329
0.00167996
0.140623
0.00166704
0.140918
0.00165884
0.141213
0.00164916
0.141508
0.00164467
0.00163936
0.14176
0.00223833
-0.141489
0.142021
0.00208565
0.142278
0.00195426
0.142533
0.00184513
0.14279
0.00175664
0.143049
0.00168362
0.143311
0.00162374
0.143576
0.00157334
0.143844
0.00153256
0.144115
0.00149808
0.14439
0.00147078
0.144667
0.00144677
0.144947
0.00142799
0.145229
0.00141034
0.145511
0.00139711
0.145795
0.00138383
0.146079
0.00137494
0.146362
0.00136555
0.146646
0.00136089
0.00135593
0.14673
0.00193626
-0.146428
0.14702
0.00179516
0.147303
0.00167152
0.147581
0.00156718
0.147856
0.00148125
0.14813
0.00140966
0.148404
0.00135023
0.148677
0.00129985
0.148951
0.00125832
0.149226
0.00122316
0.149502
0.00119473
0.149779
0.00117026
0.150056
0.0011507
0.150333
0.00113328
0.150611
0.00111976
0.150887
0.00110743
0.151163
0.00109863
0.151438
0.0010907
0.151713
0.00108626
0.00108297
0.151516
0.00160083
-0.151181
0.151838
0.00147379
0.152148
0.00136119
0.15245
0.00126539
0.152746
0.00118568
0.153036
0.00111894
0.153323
0.00106306
0.153608
0.00101571
0.15389
0.0009762
0.15417
0.000943038
0.154449
0.000915808
0.154726
0.000893123
0.155002
0.000874567
0.155276
0.000859239
0.155549
0.000846728
0.15582
0.000836939
0.156089
0.000829064
0.156356
0.000824105
0.156622
0.000820268
0.000820244
0.156222
0.00124041
-0.155862
0.156566
0.00113068
0.156894
0.00103249
0.157211
0.000948502
0.157519
0.000878156
0.157818
0.000819306
0.158112
0.000769779
0.158399
0.000728169
0.158682
0.000693154
0.158961
0.000664403
0.159236
0.000640429
0.159508
0.000621551
0.159777
0.000605574
0.160042
0.000594002
0.160305
0.000583615
0.160564
0.000577781
0.160822
0.00057152
0.161075
0.000570816
0.161327
0.000567883
0.0005724
0.161022
0.000880632
-0.160662
0.161362
0.000790614
0.161685
0.000709209
0.161994
0.000639201
0.162292
0.000580241
0.16258
0.000531275
0.16286
0.000489986
0.163132
0.00045593
0.163398
0.000427056
0.163658
0.000404276
0.163914
0.000384899
0.164165
0.000371067
0.164411
0.000358651
0.164654
0.000351746
0.164893
0.000344127
0.165128
0.000342892
0.165361
0.000338604
0.165589
0.000342601
0.165816
0.000340708
0.000350074
0.166011
0.000560131
-0.165691
0.166312
0.000489816
0.166596
0.000425474
0.166865
0.000369806
0.167123
0.000322637
0.16737
0.000283975
0.167609
0.000251357
0.167839
0.000225224
0.168063
0.000202876
0.168281
0.000186314
0.168494
0.000171798
0.168703
0.000163035
0.168907
0.000154278
0.169107
0.000151796
0.169304
0.000146906
0.169497
0.000149753
0.169688
0.00014733
0.169876
0.000155248
0.170062
0.000154305
0.000167486
0.171046
0.000312557
-0.170798
0.171276
0.00025956
0.171491
0.000210606
0.171693
0.000168059
0.171884
0.000131798
0.172065
0.000102584
0.172239
7.78061e-05
0.172405
5.86996e-05
0.172566
4.21904e-05
0.172721
3.0929e-05
0.172872
2.06253e-05
0.173019
1.58769e-05
0.173164
1.01346e-05
0.173305
1.08018e-05
0.173443
8.03559e-06
0.17358
1.34309e-05
0.173715
1.23832e-05
0.173848
2.23761e-05
0.17398
2.21104e-05
3.6932e-05
0.175735
0.000148673
-0.175571
0.175885
0.00011007
0.176021
7.42644e-05
0.176146
4.32466e-05
0.176261
1.67599e-05
0.176367
-3.95732e-06
0.176467
-2.21123e-05
0.176562
-3.54184e-05
0.176651
-4.70598e-05
0.176736
-5.43058e-05
0.176818
-6.13076e-05
0.176897
-6.34613e-05
0.176974
-6.7049e-05
0.17705
-6.48636e-05
0.177124
-6.62737e-05
0.177198
-6.02344e-05
0.177271
-6.04966e-05
0.177344
-5.06585e-05
0.177417
-5.05679e-05
-3.67035e-05
0.179636
5.7255e-05
-0.179545
0.179715
3.10507e-05
0.179783
6.6361e-06
0.17984
-1.36189e-05
0.179887
-3.07887e-05
0.179928
-4.43913e-05
0.179962
-5.60703e-05
0.179991
-6.44771e-05
0.180015
-7.19263e-05
0.180037
-7.61868e-05
0.180057
-8.05222e-05
0.180074
-8.12656e-05
0.180091
-8.33207e-05
0.180107
-8.10281e-05
0.180122
-8.16565e-05
0.180139
-7.66387e-05
0.180155
-7.65661e-05
0.180173
-6.88363e-05
0.180191
-6.86322e-05
-5.80244e-05
0.182424
1.77812e-05
-0.182384
0.182451
3.19426e-06
0.182468
-1.03144e-05
0.182475
-2.06645e-05
0.182474
-2.89513e-05
0.182465
-3.54583e-05
0.18245
-4.11747e-05
0.18243
-4.52515e-05
0.182407
-4.88935e-05
0.182382
-5.08478e-05
0.182355
-5.29063e-05
0.182326
-5.30515e-05
0.182297
-5.39587e-05
0.182268
-5.25471e-05
0.18224
-5.27478e-05
0.182213
-4.99384e-05
0.182186
-4.98008e-05
0.182163
-4.55954e-05
0.18214
-4.54126e-05
-3.96855e-05
0.18388
-0.183862
0.183883
0.183872
0.183852
0.183823
0.183787
0.183746
0.183701
0.183652
0.183601
0.183548
0.183495
0.183441
0.183389
0.183336
0.183286
0.183236
0.183191
0.183145
0.0892927
0.0153308
-0.0881621
0.0904673
0.0248522
0.0917045
0.0342345
0.0929566
0.0433646
0.0942587
0.0519748
0.0954745
0.0600844
0.0963796
0.067395
0.0969807
0.0734236
0.0943069
0.0794946
0.0779185
0.0919335
0.0143021
-0.0909047
0.0930514
0.0237343
0.0942926
0.0329933
0.0956212
0.0420361
0.0969912
0.0506048
0.098545
0.0585305
0.0996921
0.0662479
0.101415
0.0717004
0.101524
0.0793855
0.0796207
0.0948246
0.0133665
-0.093889
0.0959037
0.0226551
0.0971153
0.0317816
0.0985209
0.0406305
0.0999167
0.049209
0.101691
0.056756
0.103162
0.0647774
0.105055
0.0698067
0.106744
0.0776969
0.0796267
0.097855
0.0124971
-0.0969856
0.098936
0.0215742
0.10015
0.0305673
0.101637
0.039144
0.10313
0.0477157
0.104962
0.0549242
0.106767
0.0629723
0.108545
0.0680284
0.110831
0.075411
0.0783757
0.100939
0.0116645
-0.100107
0.102046
0.0204671
0.103325
0.0292882
0.104891
0.0375784
0.106565
0.0460419
0.108413
0.0530755
0.110485
0.0609006
0.112334
0.0661791
0.114761
0.0729847
0.0764168
0.104006
0.0108407
-0.103182
0.105147
0.0193254
0.106538
0.0278974
0.108197
0.0359196
0.110089
0.0441495
0.112059
0.0511057
0.114358
0.0586012
0.116488
0.0640495
0.118993
0.0704799
0.0740855
0.106989
0.0100049
-0.106153
0.108175
0.0181398
0.109695
0.026377
0.111485
0.03413
0.113601
0.0420331
0.115815
0.0488923
0.118352
0.0560641
0.120839
0.0615627
0.12354
0.0677788
0.0714653
0.109845
0.00914681
-0.108987
0.111088
0.0168964
0.112737
0.0247287
0.114693
0.0321735
0.117029
0.0396975
0.119542
0.046379
0.122355
0.0532515
0.125216
0.0587015
0.128256
0.0647385
0.0685016
0.11257
0.00826453
-0.111688
0.11388
0.0155862
0.115646
0.0229632
0.11778
0.0300396
0.120327
0.0371498
0.123138
0.0435678
0.126266
0.0501242
0.129514
0.0554532
0.132987
0.0612661
0.0651073
0.115215
0.00736178
-0.114313
0.11659
0.0142115
0.118457
0.0210963
0.120751
0.0277449
0.123497
0.0344038
0.126579
0.0404865
0.130032
0.0466708
0.133667
0.0518182
0.1376
0.0573332
0.0612186
0.117892
0.00644849
-0.116978
0.119315
0.0127879
0.121262
0.0191494
0.123685
0.025322
0.126603
0.0314858
0.129915
0.0371752
0.133666
0.0429197
0.137661
0.047823
0.142028
0.0529662
0.0568188
0.120749
0.00553723
-0.119838
0.122197
0.01134
0.124198
0.0171486
0.126714
0.0228061
0.129768
0.028432
0.133264
0.0336783
0.137258
0.0389257
0.141565
0.0435161
0.146305
0.0482271
0.0519422
0.123919
0.00465856
-0.12304
0.125365
0.00989388
0.127395
0.0151186
0.129977
0.020224
0.133134
0.0252752
0.136781
0.0300313
0.140966
0.034741
0.145534
0.0389478
0.150576
0.0431848
0.0466566
0.127422
0.00384226
-0.126606
0.128847
0.00846893
0.130892
0.0130736
0.133532
0.0175845
0.136779
0.022028
0.140566
0.0262447
0.144919
0.0303875
0.149722
0.0341453
0.155027
0.0378796
0.0410217
0.131087
0.00310301
-0.130347
0.132487
0.00706873
0.134551
0.0110097
0.137259
0.0148759
0.140611
0.0186758
0.144555
0.022301
0.149096
0.0258469
0.154142
0.0290988
0.159721
0.0323012
0.0350519
0.134575
0.0024305
-0.133903
0.135965
0.00567863
0.138067
0.00890769
0.140867
0.0120759
0.144353
0.0151903
0.148483
0.0181713
0.153247
0.0210822
0.158571
0.0237756
0.164463
0.0264086
0.0287166
0.137556
0.00179586
-0.136922
0.138958
0.00427685
0.141118
0.00674756
0.144024
0.00916993
0.14766
0.0115547
0.151989
0.0138426
0.156996
0.0160747
0.162614
0.0181579
0.168843
0.020179
0.0219887
0.139874
0.00117788
-0.139256
0.141297
0.00285451
0.143516
0.00452782
0.14652
0.00616657
0.150292
0.00778228
0.1548
0.00933494
0.160026
0.0108482
0.165913
0.0122715
0.172449
0.0136422
0.0148935
0.141516
0.00057952
-0.140917
0.142946
0.00142421
0.145204
0.00227015
0.148273
0.00309746
0.152141
0.00391388
0.156777
0.0046992
0.162161
0.00546381
0.168246
0.00618681
0.175009
0.00687927
0.00751831
0.142409
-0.141829
0.143833
0.146103
0.149201
0.153114
0.157814
0.163277
0.169464
0.176344
0.0420853
0.0519593
-0.045967
-0.0480776
0.0361288
0.0507034
-0.0447469
0.0305624
0.0499028
-0.0443364
0.0252953
0.0496475
-0.0443805
0.0202164
0.0498534
-0.0447745
0.015262
0.0505061
-0.0455518
0.0104203
0.0514688
-0.046627
0.00581901
0.0515977
-0.0469964
0.00195225
0.0467268
-0.04286
0.0267846
-0.0248324
0.0401185
0.0578379
-0.045997
0.0343577
0.0564642
0.0288661
0.0553944
0.0236831
0.0548304
0.0187382
0.0547984
0.0139562
0.0552881
0.0093297
0.0560953
0.00502367
0.0559037
0.00156362
0.0501868
0.0283482
0.0372575
0.0633573
-0.042777
0.0318019
0.0619198
0.0265327
0.0606636
0.0215331
0.05983
0.0167874
0.0595441
0.012243
0.0598326
0.00791232
0.0604259
0.00400578
0.0598102
0.00107319
0.0531194
0.0294214
0.0333367
0.0684824
-0.0384618
0.0283097
0.0669468
0.0234215
0.0655518
0.0187514
0.0645002
0.0143179
0.0639775
0.0101029
0.0640476
0.00615893
0.0643698
0.0027638
0.0632054
0.000479879
0.0554033
0.0299013
0.028442
0.0731431
-0.0331026
0.0239126
0.0714762
0.019518
0.0699463
0.0153068
0.0687114
0.0113054
0.067979
0.0075262
0.0678268
0.00406807
0.0678279
0.00128647
0.065987
-0.00019365
0.0568835
0.0297076
0.0226049
0.0772225
-0.0266844
0.0186717
0.0754094
0.0148714
0.0737467
0.0112264
0.0723563
0.00776308
0.0714423
0.00452645
0.0710634
0.0016768
0.0706776
-0.00039361
0.0680574
-0.000873043
0.0573629
0.0288346
0.0159426
0.0806037
-0.0193238
0.0126933
0.0786587
0.0095671
0.076873
0.00657412
0.0753493
0.00374001
0.0742764
0.00114565
0.0736578
-0.000963105
0.0727863
-0.00204557
0.0691399
-0.00157147
0.0568888
0.0272631
0.00856322
0.0831896
-0.0111491
0.00607117
0.0811508
0.00369794
0.0792462
0.00143335
0.0776139
-0.000696435
0.0764062
-0.00255594
0.0755173
-0.00380084
0.0740312
-0.00385186
0.0691909
-0.00224986
0.0552868
0.0250133
0.000577448
0.0849864
-0.00237428
-0.00106592
0.0827942
-0.00263491
0.0808152
-0.00413228
0.0791112
-0.00549183
0.0777658
-0.00651886
0.0765443
-0.00678503
0.0742974
-0.00565423
0.0680601
-0.0028514
0.052484
0.0221619
-0.00777118
0.00697424
-0.00856277
-0.00930905
-0.00999406
-0.0105241
-0.0106261
-0.00977312
-0.00732932
-0.00330852
0.0331638
0.00314456
-0.0363084
0.0298956
0.00326823
0.0264841
0.00341145
0.0229088
0.00357534
0.0191414
0.00376739
0.0151478
0.00399361
0.0109072
0.00424055
0.00650434
0.00440289
0.00240222
0.00410212
0.00240222
0.0337305
0.0064187
-0.0370046
0.030348
0.00665068
0.0268374
0.00692203
0.0231778
0.00723497
0.0193404
0.00760479
0.0152899
0.00804414
0.0110023
0.0085281
0.00655898
0.00884623
0.00242922
0.00823188
0.00483144
0.0348019
0.00993917
-0.0383224
0.0312021
0.0102505
0.0275026
0.0106215
0.023682
0.0110557
0.0197103
0.0115764
0.0155507
0.0122038
0.0111763
0.0129025
0.00666295
0.0133596
0.00247067
0.0124242
0.00730211
0.0362592
0.0137957
-0.0401157
0.0323616
0.014148
0.0284024
0.0145807
0.02436
0.0150981
0.0202037
0.0157328
0.0158944
0.016513
0.0114016
0.0173953
0.00679385
0.0179673
0.00252297
0.016695
0.00982508
0.037939
0.0180435
-0.0421869
0.0336923
0.0183948
0.0294275
0.0188455
0.0251242
0.0194013
0.0207515
0.0201055
0.0162679
0.0209967
0.0116387
0.0220245
0.00692583
0.0226802
0.00257321
0.0210477
0.0123983
0.0396555
0.0226959
-0.0443078
0.0350411
0.0230092
0.030451
0.0234356
0.0258707
0.0239816
0.0212698
0.0247064
0.0166049
0.0256615
0.011838
0.0267914
0.00702585
0.0274924
0.00260591
0.0254676
0.0150042
0.0411936
0.0277435
-0.0462412
0.0362168
0.027986
0.0313164
0.028336
0.0264794
0.0288186
0.021668
0.0295178
0.0168364
0.0304931
0.0119478
0.03168
0.00705888
0.0323813
0.00260462
0.0299219
0.0176088
0.0424377
0.0331616
-0.0478557
0.0370984
0.0333252
0.0319064
0.033528
0.0268414
0.0338837
0.0218511
0.0345081
0.0168865
0.0354577
0.0119121
0.0366544
0.00698834
0.0373051
0.00255259
0.0343576
0.0201614
0.0429891
0.0390533
-0.0488808
0.0373676
0.0389466
0.0320207
0.0388749
0.0268214
0.039083
0.0217162
0.0396132
0.0166757
0.0404982
0.0116725
0.0416576
0.00677662
0.042201
0.0024335
0.0387007
0.0225949
0.0429355
-0.0498492
0.0371353
0.0316738
0.0263764
0.0212152
0.0161616
0.0111921
0.00639673
0.00223744
0.039932
-0.000108659
0.0400397
-0.000107706
0.0401445
-0.000104867
0.0402422
-9.76659e-05
0.0403289
-8.66935e-05
0.040401
-7.20868e-05
0.0404544
-5.34207e-05
0.0404843
-2.98677e-05
0.0404833
1.0173e-06
0.0404528
3.04577e-05
0.0403848
6.80345e-05
0.0402716
0.000113201
0.0401046
0.000166917
0.0398741
0.000230578
0.0395681
0.000305948
0.0391729
0.00039518
0.0386719
0.000501027
0.0380452
0.000626693
0.0372688
0.000776451
0.000960391
0.0407771
-0.000218249
0.0408843
-0.000214861
0.040987
-0.000207609
0.0410819
-0.000192572
0.0411656
-0.000170379
0.0412344
-0.000140847
0.041284
-0.000103049
0.0413095
-5.53275e-05
0.0413051
5.42623e-06
0.0412697
6.5874e-05
0.0411958
0.000141929
0.0410757
0.000233268
0.0409008
0.000341832
0.040661
0.000470415
0.0403443
0.000622561
0.039937
0.000802558
0.039422
0.00101595
0.0387797
0.00126903
0.0379859
0.00157027
0.00194168
0.0424391
-0.000319381
0.0425381
-0.000313895
0.0426331
-0.000302582
0.04272
-0.000279535
0.0427953
-0.000245627
0.0428549
-0.000200502
0.0428945
-0.000142654
0.0429084
-6.92165e-05
0.0428938
2.00606e-05
0.042846
0.000113686
0.042758
0.00022993
0.0426219
0.00036936
0.0424288
0.000534922
0.0421684
0.000730812
0.0418286
0.000962375
0.0413951
0.00123601
0.040851
0.00156011
0.0401761
0.00194391
0.0393469
0.00239947
0.00296618
0.0448576
-0.000401491
0.0449376
-0.000393898
0.0450137
-0.000378689
0.0450817
-0.000347502
0.0451372
-0.000301194
0.0451761
-0.000239374
0.0451936
-0.000160138
0.0451842
-5.98303e-05
0.0451484
5.58198e-05
0.045076
0.000186108
0.0449607
0.000345246
0.0447946
0.000535466
0.0445686
0.000760932
0.0442721
0.00102735
0.0438926
0.00134186
0.0434155
0.00171305
0.0428235
0.00215211
0.0420958
0.0026716
0.0412106
0.00328466
0.00406114
0.0479513
-0.00044775
0.0479952
-0.000437789
0.0480348
-0.000418309
0.048066
-0.000378678
0.0480843
-0.000319483
0.048085
-0.000240072
0.0480634
-0.000138535
0.0480065
-3.00649e-06
0.0479312
0.000131178
0.047815
0.000302323
0.0476525
0.000507713
0.0474361
0.000751835
0.0471566
0.0010405
0.0468027
0.00138122
0.0463619
0.00178269
0.0458188
0.00225615
0.045156
0.00281483
0.0443507
0.00347691
0.0433856
0.00424978
0.00525985
0.0516264
-0.00043418
0.0516096
-0.000421053
0.0515869
-0.000395614
0.0515543
-0.000345997
0.0515069
-0.000272144
0.05144
-0.000173119
0.0513447
-4.33156e-05
0.0512379
0.00010386
0.0510899
0.000279126
0.0509003
0.00049198
0.0506622
0.000745826
0.0503671
0.00104688
0.0500058
0.00140178
0.0495665
0.0018206
0.0490364
0.00231275
0.0483985
0.00289406
0.0476368
0.00357646
0.0467232
0.00439059
0.0456497
0.0053232
0.00660178
0.055787
-0.000328049
0.0556761
-0.000310117
0.0555567
-0.00027626
0.0554271
-0.000216345
0.0552812
-0.000126289
0.0551044
3.74516e-06
0.0549207
0.00014032
0.054706
0.000318568
0.054452
0.000533129
0.0541543
0.000789721
0.0538061
0.00109403
0.053398
0.00145498
0.0529211
0.00187862
0.052362
0.00237972
0.0517101
0.00296471
0.050944
0.00366018
0.0500533
0.00446708
0.0489963
0.00544762
0.0477789
0.00654059
0.0081395
0.060345
-8.51503e-05
0.060097
-6.21132e-05
0.0598327
-1.19718e-05
0.0595566
5.97215e-05
0.059267
0.000163384
0.0589693
0.000301462
0.0586368
0.000472777
0.0582722
0.000683173
0.0578696
0.00093568
0.0574217
0.00123769
0.0569221
0.00159363
0.05636
0.00201702
0.0557282
0.00251046
0.0550084
0.00309946
0.0541948
0.0037784
0.0532564
0.00459856
0.0522006
0.00552282
0.0509618
0.00668648
0.0495775
0.00792481
0.0098613
0.0652194
0.000339773
0.0647806
0.000376704
0.0643344
0.000434201
0.0638747
0.00051948
0.0633984
0.000639635
0.0629004
0.000799526
0.0623742
0.000998937
0.0618151
0.0012423
0.0612183
0.00153245
0.0605754
0.00188057
0.0598813
0.0022878
0.0591231
0.00277521
0.0582981
0.0033354
0.0573821
0.00401548
0.0563767
0.00478384
0.0552266
0.00574859
0.0539723
0.00677716
0.0524663
0.00819251
0.0508977
0.00949343
0.0118781
0.0704154
0.00106481
0.069719
0.00107311
0.0690248
0.00112834
0.0683203
0.00122402
0.0675987
0.00136121
0.0668549
0.00154333
0.0660849
0.00176894
0.0652834
0.00204382
0.0644468
0.00236905
0.0635659
0.0027615
0.0626368
0.00321681
0.0616446
0.00376747
0.060592
0.00438798
0.0594489
0.00515859
0.0582478
0.00598496
0.0569098
0.00708656
0.0555544
0.00813257
0.0539047
0.00984216
0.0523753
0.0110229
0.0144041
0.0701094
0.00105114
0.0701186
0.00106393
0.0701203
0.00112657
0.0701191
0.00122525
0.0701143
0.00136604
0.0701049
0.00155265
0.0700942
0.00177964
0.0700842
0.00205389
0.0700796
0.0023736
0.0700808
0.00276029
0.0700977
0.00319993
0.0701282
0.00373703
0.0701954
0.00432069
0.070289
0.00506507
0.0704668
0.00580716
0.0706865
0.00686682
0.0710979
0.00772114
0.0716202
0.00931992
0.0727249
0.00991813
0.0124251
0.074704
0.0755175
0.000989147
0.0755305
0.00105093
0.0755397
0.00111732
0.0755522
0.00121277
0.0755604
0.0013579
0.075563
0.00155005
0.075566
0.00177665
0.0755729
0.00204695
0.0755887
0.00235778
0.0756148
0.00273423
0.0756603
0.00315444
0.0757281