/*--------------------------------*- C++ -*----------------------------------*\
| =========                 |                                                 |
| \\      /  F ield         | OpenFOAM: The Open Source CFD Toolbox           |
|  \\    /   O peration     | Version:  4.1                                   |
|   \\  /    A nd           | Web:      www.OpenFOAM.org                      |
|    \\/     M anipulation  |                                                 |
\*---------------------------------------------------------------------------*/
FoamFile
{
    version     2.0;
    format      ascii;
    class       volScalarField;
    location    "3";
    object      p;
}
// * * * * * * * * * * * * * * * * * * * * * * * * * * * * * * * * * * * * * //

dimensions      [0 2 -2 0 0 0 0];

internalField   nonuniform List<scalar> 
2000
(
0.0444715
0.053424
0.0613075
0.0713914
0.0840571
0.0983128
0.112914
0.126853
0.139397
0.149089
0.0331058
0.0433815
0.0528862
0.0652681
0.0806444
0.0975718
0.114518
0.130337
0.14416
0.155208
0.022625
0.0343058
0.0458445
0.0610672
0.079612
0.0994798
0.118878
0.136629
0.152002
0.164802
0.013596
0.026762
0.040782
0.059363
0.081424
0.104355
0.126166
0.145737
0.162506
0.176602
0.00669644
0.021422
0.0383758
0.0607571
0.086534
0.112509
0.136602
0.157835
0.175855
0.191104
0.00270099
0.0190487
0.0393471
0.0658412
0.0953545
0.124203
0.150342
0.173009
0.192099
0.208321
0.00245012
0.0204623
0.0444159
0.0751588
0.108242
0.139662
0.167542
0.19139
0.211375
0.228408
0.00680213
0.026482
0.0542566
0.089169
0.125474
0.15905
0.188305
0.21306
0.23376
0.251427
0.0165726
0.0378559
0.0694624
0.108224
0.147237
0.182464
0.212684
0.238045
0.259253
0.277331
0.0324733
0.0552216
0.0904786
0.132544
0.173617
0.209929
0.240677
0.266312
0.287755
0.30593
0.131351
0.13265
0.13646
0.141962
0.148368
0.154927
0.160917
0.165746
0.169005
0.170457
0.129108
0.130544
0.134373
0.139813
0.146165
0.152704
0.158727
0.16365
0.167081
0.168767
0.12473
0.126487
0.130321
0.135663
0.14193
0.148451
0.154559
0.159685
0.163457
0.165605
0.118435
0.120663
0.124528
0.129781
0.135983
0.142539
0.148826
0.154286
0.158561
0.161386
0.110478
0.113347
0.117304
0.122522
0.128742
0.135453
0.142068
0.148025
0.152962
0.156656
0.101188
0.104811
0.108961
0.114269
0.120672
0.127735
0.134889
0.141544
0.147303
0.152019
0.0908494
0.0953455
0.0998204
0.105409
0.112241
0.119932
0.127885
0.135459
0.142205
0.14806
0.0797304
0.0852135
0.0901825
0.0963139
0.103911
0.112575
0.121629
0.130334
0.13821
0.145224
0.0681174
0.0746706
0.0803405
0.0873542
0.0961384
0.106203
0.116719
0.126824
0.13599
0.143825
0.0562642
0.0639754
0.0705994
0.0789096
0.0893748
0.101317
0.11372
0.125645
0.136459
0.144576
0.169913
0.167961
0.164693
0.160103
0.154288
0.147414
0.13965
0.131149
0.122047
0.112469
0.10252
0.0922871
0.0818415
0.0712388
0.0605212
0.0497214
0.0388575
0.0279634
0.0169615
0.00616488
0.168153
0.166468
0.163596
0.159319
0.15373
0.147033
0.139412
0.131024
0.122008
0.112491
0.102583
0.0923767
0.0819444
0.0713443
0.0606207
0.049808
0.0389252
0.0280091
0.0169791
0.00616524
0.164876
0.163697
0.161565
0.157873
0.152709
0.146347
0.139001
0.130828
0.121973
0.112571
0.102741
0.0925824
0.0821725
0.0715742
0.0608356
0.0499942
0.0390717
0.0281075
0.0170251
0.0061414
0.160518
0.160028
0.158881
0.155964
0.151372
0.145473
0.138505
0.130628
0.121993
0.112748
0.103025
0.0929279
0.0825447
0.0719434
0.0611776
0.0502894
0.0393042
0.0282647
0.0171018
0.00611188
0.155677
0.15598
0.155928
0.153876
0.149938
0.144581
0.138061
0.130533
0.122157
0.113095
0.103492
0.0934619
0.083101
0.0724853
0.0616745
0.0507165
0.0396415
0.0284958
0.0172212
0.00608657
0.151023
0.152148
0.153154
0.151937
0.14866
0.14387
0.137823
0.130664
0.122561
0.113691
0.104207
0.0942378
0.083886
0.0732365
0.0623564
0.0513001
0.0401032
0.0288161
0.0173947
0.00607462
0.147208
0.149149
0.151037
0.150523
0.147836
0.143572
0.137968
0.131155
0.123309
0.114617
0.105239
0.0953125
0.0849483
0.0742394
0.0632603
0.0520718
0.0407161
0.0292473
0.017638
0.00608707
0.144635
0.147323
0.149829
0.149834
0.147655
0.14386
0.138642
0.132127
0.124497
0.115945
0.106638
0.0967194
0.0863089
0.0755068
0.0643941
0.0530375
0.0414853
0.0297939
0.0179545
0.00612847
0.143183
0.146513
0.149459
0.149819
0.148109
0.144773
0.139933
0.133711
0.126291
0.11786
0.108593
0.0986402
0.0881334
0.0771829
0.0658789
0.0542963
0.0424898
0.0305169
0.0183839
0.00621648
0.144087
0.148126
0.15118
0.151574
0.149957
0.146727
0.142008
0.135919
0.128613
0.120256
0.11101
0.10102
0.0904153
0.0793079
0.067793
0.0559512
0.0438454
0.0315352
0.0190369
0.0064289
0.154602
0.15475
0.156311
0.155972
0.153598
0.149671
0.14442
0.137929
0.1303
0.121676
0.112204
0.102021
0.0912498
0.0799956
0.0683508
0.0563917
0.0441816
0.0317705
0.019191
0.00646979
0.164152
0.161362
0.16086
0.159091
0.155458
0.150483
0.144461
0.137441
0.129471
0.120649
0.11109
0.100901
0.09018
0.0790136
0.0674798
0.0556443
0.0435657
0.0312843
0.0188542
0.006275
0.172807
0.168016
0.165647
0.162449
0.157694
0.151811
0.145081
0.13754
0.1292
0.120131
0.110422
0.10016
0.089423
0.0782841
0.0668093
0.0550548
0.0430757
0.0309027
0.0186101
0.00614965
0.181031
0.174641
0.170603
0.166034
0.160218
0.153486
0.146078
0.138016
0.129296
0.11996
0.110076
0.0997102
0.0889262
0.0777826
0.0663352
0.0546312
0.0427224
0.0306289
0.0184397
0.00605744
0.188747
0.181032
0.175496
0.169658
0.162857
0.155337
0.147289
0.138723
0.129622
0.120009
0.109932
0.0994422
0.0885882
0.0774167
0.0659742
0.0542993
0.04244
0.030406
0.0182979
0.00597746
0.195876
0.187062
0.180208
0.173232
0.165537
0.157298
0.148657
0.139613
0.13014
0.120248
0.109969
0.0993393
0.0883969
0.0771778
0.0657202
0.0540546
0.0422255
0.0302326
0.0181864
0.00591333
0.202369
0.192663
0.184672
0.176693
0.168201
0.159311
0.150127
0.140635
0.130806
0.12064
0.110155
0.0993771
0.0883336
0.0770521
0.0655631
0.0538903
0.0420744
0.0301062
0.018104
0.00586394
0.208228
0.197801
0.188844
0.179992
0.170796
0.161324
0.151645
0.14174
0.131576
0.121145
0.110457
0.0995274
0.0883752
0.0770207
0.0654881
0.0537946
0.0419778
0.0300203
0.0180464
0.00582685
0.213478
0.202468
0.192697
0.183093
0.17328
0.163291
0.153168
0.142886
0.132411
0.12173
0.110845
0.099764
0.0884995
0.0770653
0.0654802
0.0537559
0.0419269
0.0299686
0.0180098
0.00580019
0.218153
0.20667
0.196215
0.18597
0.175622
0.165178
0.154659
0.144036
0.133277
0.122363
0.11129
0.100062
0.0886857
0.0771685
0.0655254
0.0537631
0.0419131
0.0299449
0.0179904
0.00578224
0.222289
0.210419
0.199395
0.188605
0.177796
0.166956
0.156087
0.145161
0.134143
0.123015
0.111768
0.1004
0.0889143
0.077314
0.0656102
0.0538051
0.0419282
0.0299434
0.0179849
0.00577135
0.225919
0.213733
0.202235
0.190986
0.179784
0.168602
0.157428
0.146232
0.134984
0.123663
0.112256
0.100758
0.0891679
0.0774868
0.0657219
0.0538721
0.0419644
0.0299584
0.0179897
0.00576598
0.229073
0.216629
0.204739
0.193107
0.181573
0.170097
0.158659
0.14723
0.135779
0.124285
0.112734
0.101117
0.0894308
0.0776734
0.0658494
0.0539547
0.0420147
0.0299848
0.0180019
0.00576475
0.231779
0.219124
0.206913
0.194964
0.183151
0.171428
0.159766
0.148136
0.13651
0.124864
0.113186
0.101463
0.0896895
0.0778619
0.0659825
0.0540449
0.0420726
0.0300181
0.0180187
0.0057664
0.23406
0.221234
0.208763
0.196555
0.184514
0.172585
0.160735
0.148936
0.13716
0.125386
0.113597
0.101782
0.089932
0.078042
0.0661125
0.0541353
0.0421326
0.0300542
0.0180377
0.00576985
0.235935
0.222974
0.210296
0.19788
0.185654
0.173559
0.161556
0.149618
0.137719
0.125838
0.113957
0.102064
0.0901487
0.078205
0.0662321
0.05422
0.0421898
0.0300896
0.0180567
0.00577415
0.237422
0.224355
0.211516
0.19894
0.18657
0.174344
0.162221
0.150174
0.138177
0.12621
0.114256
0.102299
0.0903314
0.0783438
0.0663349
0.0542937
0.0422404
0.0301214
0.018074
0.00577855
0.23853
0.225386
0.212428
0.199734
0.187259
0.174937
0.162725
0.150596
0.138527
0.126496
0.114486
0.102482
0.0904738
0.0784527
0.0664163
0.0543526
0.0422811
0.0301474
0.0180883
0.00578252
0.239277
0.226076
0.213037
0.200264
0.187719
0.175334
0.163063
0.15088
0.138762
0.126689
0.114642
0.102606
0.0905713
0.0785277
0.0664725
0.0543935
0.0423095
0.0301659
0.0180983
0.0057869
0.239681
0.226438
0.213351
0.200533
0.187951
0.175534
0.163233
0.151023
0.138881
0.126787
0.114721
0.102669
0.0906208
0.0785658
0.0665011
0.0544146
0.0423236
0.0301765
0.0181008
0.00579666
0.320862
0.292873
0.267357
0.244505
0.224408
0.207021
0.192305
0.180019
0.170126
0.160398
0.333459
0.306468
0.281749
0.259371
0.239426
0.221807
0.206615
0.193203
0.182287
0.170882
0.344437
0.318459
0.29451
0.27258
0.252771
0.23489
0.219198
0.204839
0.193166
0.18111
0.353928
0.328782
0.305442
0.283872
0.264202
0.246192
0.230231
0.215411
0.203171
0.190697
0.36213
0.337682
0.314861
0.293626
0.274122
0.256104
0.23999
0.22491
0.212112
0.199362
0.369249
0.345414
0.323057
0.302143
0.282815
0.264841
0.248602
0.233347
0.220079
0.207143
0.375447
0.352154
0.330214
0.309598
0.29044
0.272535
0.256202
0.240843
0.227211
0.214104
0.380849
0.358036
0.33647
0.316131
0.297134
0.279316
0.262923
0.247499
0.233583
0.220307
0.385556
0.363173
0.341943
0.321859
0.303018
0.285294
0.268868
0.253396
0.239259
0.225822
0.389654
0.367654
0.346728
0.32688
0.308188
0.290559
0.274119
0.258611
0.2443
0.230713
0.393211
0.371554
0.350904
0.331273
0.312722
0.295185
0.278744
0.263208
0.248758
0.235032
0.396283
0.374937
0.354536
0.335102
0.316686
0.299234
0.282803
0.267242
0.252676
0.23882
0.398928
0.377853
0.357676
0.338423
0.320131
0.30276
0.286342
0.27076
0.256093
0.242115
0.401162
0.380341
0.360366
0.341278
0.323102
0.305805
0.289403
0.273799
0.259043
0.244947
0.40303
0.38243
0.362642
0.343704
0.325635
0.308404
0.292017
0.276391
0.261553
0.247342
0.404545
0.384149
0.364533
0.345731
0.327758
0.310587
0.294213
0.278563
0.263647
0.249322
0.405737
0.385521
0.366059
0.347381
0.329495
0.312376
0.296012
0.280335
0.265343
0.250905
0.406622
0.386566
0.36724
0.34867
0.330861
0.313786
0.297428
0.281722
0.266653
0.252102
0.407215
0.387302
0.368099
0.349628
0.331887
0.31485
0.298493
0.282752
0.267606
0.252935
0.407487
0.387701
0.368609
0.350228
0.332552
0.315551
0.299198
0.283429
0.268213
0.253431
0.678809
0.675513
0.66748
0.656493
0.642924
0.625964
0.604255
0.577052
0.547428
0.533345
0.644023
0.637344
0.625284
0.611173
0.59463
0.574128
0.54819
0.516306
0.481925
0.464723
0.606914
0.597105
0.582211
0.565473
0.545959
0.521889
0.491869
0.455701
0.416994
0.397198
0.566791
0.554906
0.538251
0.519432
0.497242
0.469895
0.436185
0.396373
0.353983
0.332236
0.525946
0.512371
0.494305
0.47367
0.449106
0.418885
0.381973
0.339187
0.294201
0.271192
0.48555
0.470465
0.451185
0.428954
0.402319
0.369656
0.330139
0.284317
0.239761
0.215236
0.446107
0.429728
0.409474
0.385937
0.357599
0.322965
0.281353
0.234535
0.19044
0.165074
0.408082
0.390634
0.369684
0.345182
0.315563
0.279561
0.236892
0.189909
0.146827
0.121392
0.371868
0.353619
0.332352
0.307159
0.276689
0.239988
0.19707
0.150779
0.109585
0.0846614
0.337251
0.319218
0.297803
0.272226
0.241391
0.204586
0.162196
0.117568
0.079047
0.0550553
0.913243
0.915749
0.919626
0.924954
0.931721
0.939808
0.94883
0.957797
0.966491
0.980918
0.909063
0.911094
0.914628
0.919577
0.925861
0.933352
0.941654
0.949759
0.957451
0.971225
0.900691
0.901802
0.904665
0.908865
0.914195
0.920505
0.927363
0.933747
0.939577
0.951907
0.888121
0.887921
0.88982
0.892923
0.896854
0.901434
0.906178
0.910043
0.913173
0.923375
0.871361
0.869531
0.870216
0.871907
0.874033
0.876383
0.878401
0.879026
0.878687
0.886179
0.850426
0.846726
0.846007
0.846019
0.845991
0.845677
0.844441
0.841203
0.836739
0.84104
0.825435
0.819708
0.817462
0.815578
0.813097
0.809754
0.804822
0.797217
0.788107
0.788861
0.796216
0.788469
0.784758
0.780888
0.775758
0.769128
0.760181
0.747844
0.733722
0.730714
0.763191
0.75356
0.74853
0.742505
0.73452
0.724426
0.711265
0.693985
0.674659
0.667822
0.724011
0.715178
0.709373
0.701032
0.6901
0.676472
0.658991
0.636688
0.612129
0.601547
0.9965
0.989619
0.982944
0.976381
0.969901
0.963538
0.957334
0.951324
0.945543
0.940024
0.93482
0.930003
0.925621
0.921719
0.918355
0.915591
0.913495
0.912136
0.911586
0.911896
0.996453
0.989484
0.982711
0.976042
0.969454
0.96298
0.956662
0.950533
0.944623
0.938965
0.933623
0.928654
0.9241
0.920005
0.916423
0.913412
0.911032
0.909345
0.908416
0.908271
0.996367
0.989213
0.982235
0.975357
0.968557
0.961866
0.955322
0.948953
0.942787
0.936849
0.931229
0.925956
0.92106
0.91658
0.912563
0.909057
0.90611
0.903765
0.902073
0.901002
0.996237
0.9888
0.981518
0.974327
0.96721
0.960193
0.953311
0.94659
0.940055
0.93371
0.927668
0.921934
0.916521
0.911465
0.906798
0.902552
0.898751
0.895412
0.892564
0.890064
0.99606
0.988246
0.980559
0.972956
0.96542
0.957972
0.950633
0.94342
0.936332
0.929535
0.922959
0.916607
0.910509
0.904687
0.899157
0.893922
0.888982
0.884304
0.879898
0.875433
0.995835
0.987548
0.979356
0.971235
0.96317
0.955176
0.947275
0.939477
0.931819
0.924386
0.917111
0.909991
0.903044
0.896273
0.889666
0.883196
0.876826
0.870457
0.864085
0.857084
0.995564
0.986714
0.977935
0.96922
0.960555
0.951949
0.943384
0.934822
0.92652
0.918333
0.910215
0.902176
0.894216
0.886311
0.87842
0.870472
0.86239
0.853977
0.845245
0.835108
0.995236
0.985707
0.976212
0.966768
0.957359
0.947923
0.938541
0.929415
0.920327
0.911235
0.902148
0.893058
0.883932
0.874712
0.865318
0.855625
0.84551
0.834643
0.823116
0.809223
0.994914
0.984725
0.974533
0.964265
0.953993
0.943857
0.933836
0.923802
0.913731
0.90362
0.893451
0.883184
0.872757
0.86208
0.851038
0.839444
0.827129
0.813561
0.798948
0.780465
0.994387
0.983145
0.97191
0.960794
0.949746
0.938699
0.927635
0.916542
0.90539
0.894142
0.882746
0.871129
0.85919
0.846789
0.833744
0.819775
0.804632
0.787564
0.769049
0.744933
0.99414
0.982412
0.970673
0.958922
0.947136
0.935297
0.923393
0.911391
0.899246
0.886901
0.874283
0.861297
0.847816
0.83367
0.818639
0.802398
0.78459
0.76436
0.741169
0.711324
0.993933
0.981788
0.969614
0.957402
0.945143
0.932813
0.920383
0.907813
0.895052
0.882038
0.868692
0.854915
0.840576
0.825507
0.809497
0.792246
0.773444
0.752494
0.729201
0.702562
0.993739
0.981195
0.968601
0.955956
0.94325
0.930452
0.917525
0.904428
0.891107
0.877499
0.863525
0.849086
0.83406
0.818292
0.801598
0.783736
0.764471
0.743443
0.720473
0.695065
0.993548
0.980609
0.967598
0.954523
0.941371
0.928109
0.914696
0.901087
0.88723
0.87306
0.858501
0.843457
0.827818
0.811445
0.794184
0.775845
0.756243
0.735138
0.712336
0.68754
0.99336
0.980034
0.966618
0.953126
0.939547
0.925844
0.911973
0.897889
0.88354
0.868862
0.853783
0.838215
0.822058
0.805193
0.787491
0.768802
0.748978
0.727854
0.705278
0.681074
0.993178
0.97948
0.965677
0.951788
0.937804
0.923688
0.909394
0.894875
0.880081
0.864953
0.849422
0.833409
0.816826
0.799573
0.781542
0.762615
0.742678
0.721619
0.699325
0.675669
0.993005
0.978953
0.964782
0.950519
0.936158
0.921658
0.906974
0.89206
0.876868
0.861342
0.84542
0.829032
0.812101
0.794543
0.776269
0.757189
0.737213
0.716266
0.69426
0.671098
0.992841
0.978456
0.963941
0.949329
0.934617
0.919764
0.904724
0.889454
0.873907
0.858033
0.841776
0.825073
0.807858
0.790062
0.771612
0.752438
0.732472
0.711662
0.689938
0.667228
0.992688
0.977993
0.963159
0.948225
0.93319
0.918015
0.902654
0.887065
0.871205
0.855028
0.838484
0.821518
0.804073
0.786093
0.767518
0.748295
0.728372
0.707712
0.686262
0.66397
0.992546
0.977565
0.962439
0.94721
0.931882
0.916416
0.900767
0.884895
0.868761
0.852322
0.835535
0.81835
0.800722
0.782601
0.763941
0.7447
0.724839
0.704336
0.683147
0.66124
0.992416
0.977174
0.961783
0.946289
0.930697
0.914971
0.899066
0.882945
0.866572
0.849909
0.832916
0.815552
0.797776
0.779549
0.760834
0.741598
0.721813
0.701464
0.680521
0.658962
0.992299
0.976823
0.961194
0.945462
0.929636
0.91368
0.89755
0.881212
0.864634
0.847779
0.830614
0.813103
0.79521
0.776905
0.758156
0.73894
0.719235
0.699036
0.678318
0.657072
0.992195
0.97651
0.960672
0.944731
0.928699
0.912541
0.896217
0.879692
0.862938
0.845922
0.828614
0.810983
0.792999
0.774636
0.75587
0.736683
0.717059
0.696999
0.676485
0.655516
0.992104
0.976238
0.960217
0.944095
0.927885
0.911554
0.895062
0.878379
0.861477
0.844327
0.826901
0.809173
0.791118
0.772714
0.753942
0.734788
0.715243
0.695309
0.674975
0.654247
0.992026
0.976005
0.959829
0.943553
0.927193
0.910715
0.894084
0.877268
0.860243
0.842982
0.825462
0.807657
0.789548
0.771115
0.752343
0.733224
0.71375
0.693927
0.67375
0.653228
0.991962
0.975811
0.959507
0.943104
0.92662
0.910022
0.893276
0.876352
0.859228
0.841879
0.824283
0.806419
0.788269
0.769816
0.75105
0.731963
0.712552
0.692824
0.672777
0.652426
0.99191
0.975657
0.959251
0.942747
0.926164
0.909472
0.892635
0.875627
0.858425
0.841008
0.823354
0.805445
0.787265
0.768799
0.75004
0.730981
0.711623
0.691972
0.672032
0.651818
0.991872
0.975542
0.95906
0.942481
0.925825
0.909062
0.892158
0.875087
0.857829
0.840361
0.822666
0.804725
0.786523
0.76805
0.749297
0.730262
0.710944
0.691353
0.671493
0.651382
0.991846
0.975467
0.958935
0.942306
0.925599
0.908789
0.891841
0.87473
0.857434
0.839933
0.822211
0.804249
0.786034
0.767557
0.748809
0.72979
0.7105
0.690951
0.671147
0.651106
0.991829
0.975429
0.958875
0.942219
0.925487
0.908654
0.891684
0.874552
0.857237
0.839721
0.821985
0.804013
0.785792
0.767312
0.748567
0.729556
0.710281
0.690753
0.670981
0.650988
0.677752
0.642444
0.606974
0.569316
0.53076
0.492589
0.455201
0.418907
0.384036
0.351208
0.673674
0.637115
0.60188
0.56665
0.530667
0.494951
0.459973
0.425964
0.393302
0.362523
0.667217
0.631916
0.597925
0.565
0.531384
0.497743
0.464739
0.432631
0.401717
0.372313
0.660936
0.627562
0.595005
0.563859
0.532201
0.500335
0.468985
0.438444
0.40894
0.380757
0.655466
0.623878
0.592772
0.563079
0.533043
0.502705
0.472757
0.443533
0.415225
0.388073
0.650783
0.620766
0.591055
0.562591
0.533893
0.50486
0.47611
0.448
0.420706
0.394431
0.646811
0.618167
0.589727
0.562313
0.534719
0.506794
0.479073
0.451911
0.425483
0.399966
0.64348
0.616026
0.588698
0.562179
0.5355
0.508514
0.481676
0.455329
0.429646
0.404788
0.64071
0.614275
0.587897
0.562134
0.536218
0.510027
0.483949
0.458305
0.433266
0.408984
0.638418
0.612848
0.587268
0.56214
0.536862
0.511344
0.485919
0.460883
0.436406
0.41263
0.636531
0.611688
0.586768
0.562167
0.537422
0.512473
0.48761
0.463101
0.439114
0.415784
0.634982
0.610743
0.586361
0.562192
0.53789
0.513423
0.489042
0.464992
0.441435
0.418494
0.633717
0.60997
0.58602
0.562199
0.538263
0.514201
0.490232
0.466579
0.443402
0.420851
0.63269
0.609333
0.585721
0.562175
0.538537
0.514814
0.491196
0.467882
0.445018
0.422714
0.631862
0.6088
0.585444
0.562109
0.538711
0.515268
0.491947
0.468929
0.446356
0.424355
0.631203
0.60835
0.585175
0.561994
0.538782
0.515567
0.492496
0.469732
0.44741
0.425643
0.63069
0.607963
0.584903
0.561825
0.53875
0.515715
0.492849
0.470299
0.448195
0.42664
0.630302
0.607626
0.58462
0.561599
0.538617
0.515719
0.493017
0.470646
0.448725
0.427351
0.630021
0.607314
0.584298
0.561288
0.538361
0.515562
0.49299
0.470768
0.449009
0.427801
0.629875
0.607069
0.583958
0.560884
0.537951
0.515202
0.492719
0.470614
0.448986
0.427917
)
;

boundaryField
{
    bottom
    {
        type            symmetryPlane;
    }
    right
    {
        type            fixedValue;
        value           uniform 0;
    }
    top
    {
        type            symmetryPlane;
    }
    left
    {
        type            fixedValue;
        value           uniform 1;
    }
    cylinder
    {
        type            zeroGradient;
    }
    defaultFaces
    {
        type            empty;
    }
}


// ************************************************************************* //
