/*--------------------------------*- C++ -*----------------------------------*\
| =========                 |                                                 |
| \\      /  F ield         | OpenFOAM: The Open Source CFD Toolbox           |
|  \\    /   O peration     | Version:  4.1                                   |
|   \\  /    A nd           | Web:      www.OpenFOAM.org                      |
|    \\/     M anipulation  |                                                 |
\*---------------------------------------------------------------------------*/
FoamFile
{
    version     2.0;
    format      ascii;
    class       surfaceScalarField;
    location    "3";
    object      phi;
}
// * * * * * * * * * * * * * * * * * * * * * * * * * * * * * * * * * * * * * //

dimensions      [0 3 -1 0 0 0 0];

internalField   nonuniform List<scalar> 
3890
(
0.000769481
-0.00240288
0.0016334
0.00282146
-0.00938292
0.00733093
0.00584965
-0.0168442
0.013816
0.00946875
-0.0236396
0.0200205
0.0133053
-0.0291538
0.0253172
0.0170724
-0.0332036
0.0294365
0.0205936
-0.0358943
0.0323731
0.0237863
-0.0374673
0.0342746
0.0266375
-0.0381986
0.0353474
-0.0384008
0.0358521
0.0291862
0.000901723
-0.0033046
0.00320562
-0.0116868
0.00647199
-0.0201106
0.0102127
-0.0273803
0.0140105
-0.0329515
0.0175896
-0.0367827
0.0208178
-0.0391225
0.0236733
-0.0403229
0.0262081
-0.0407334
-0.0406768
0.028484
0.00103373
-0.00433833
0.00355941
-0.0142125
0.00698664
-0.0235378
0.0107343
-0.031128
0.0143678
-0.036585
0.0176471
-0.0400621
0.0204946
-0.04197
0.0229349
-0.0427631
0.0250375
-0.042836
-0.0424998
0.0268606
0.00116046
-0.00549879
0.00386171
-0.0169137
0.00735433
-0.0270304
0.0109875
-0.0347612
0.0143424
-0.0399398
0.0172379
-0.0429576
0.0196602
-0.0443923
0.0216818
-0.0447847
0.0234026
-0.0445568
-0.0440059
0.0249087
0.00127519
-0.00677398
0.00408967
-0.0197282
0.00754084
-0.0304816
0.0109429
-0.0381633
0.0139246
-0.0429215
0.0163784
-0.0454114
0.0183516
-0.0463655
0.0199549
-0.046388
0.0213044
-0.0459064
-0.0451892
0.0224877
0.00137002
-0.008144
0.00422183
-0.02258
0.00752259
-0.0337824
0.0105923
-0.0412329
0.0131333
-0.0454626
0.0151165
-0.0473946
0.0166429
-0.0478919
0.0178483
-0.0475934
0.0188532
-0.0469113
-0.0460767
0.0197408
0.00143666
-0.00958067
0.00424083
-0.0253842
0.00728954
-0.0368311
0.00994755
-0.043891
0.0120074
-0.0475225
0.0135138
-0.048901
0.0146079
-0.048986
0.0154374
-0.0484228
0.0161177
-0.0475916
-0.0466813
0.0167222
0.00146752
-0.0110482
0.00413649
-0.0280532
0.00684609
-0.0395407
0.00903774
-0.0460826
0.0105998
-0.0490846
0.0116401
-0.0499412
0.0123249
-0.0496708
0.0128018
-0.0488997
0.0131745
-0.0479642
-0.0470114
0.0135045
0.00145686
-0.012505
0.00390849
-0.0305048
0.00620936
-0.0418415
0.00790276
-0.047776
0.00896875
-0.0501506
0.00956321
-0.0505357
0.00986372
-0.0499713
0.0100087
-0.0490447
0.0100864
-0.0480419
-0.0470702
0.0101452
0.00140129
-0.0139063
0.00356255
-0.0326661
0.00540527
-0.0436843
0.00658802
-0.0489588
0.00717183
-0.0507344
0.00734498
-0.0507089
0.00728455
-0.0499109
0.00711475
-0.0488749
0.00690821
-0.0478353
0.00670012
-0.0468621
-0.000173768
0.000173767
-0.000166567
-7.20211e-06
0.000256835
-0.0004234
0.0011982
-0.00094136
0.00268659
-0.0014884
0.00470618
-0.00201959
0.00721313
-0.00250695
0.0101456
-0.00293247
0.0134273
-0.00328169
-0.00352603
0.0169533
-0.0001465
0.000320269
-8.34552e-05
-7.02484e-05
0.000411917
-0.000918773
0.00143657
-0.00196602
0.0030128
-0.00306463
0.00511869
-0.00412547
0.00770473
-0.005093
0.0107047
-0.00593238
0.0140404
-0.00661739
-0.00709607
0.0176104
-9.47488e-05
0.000415018
7.44342e-05
-0.000239431
0.000712253
-0.00155659
0.00189939
-0.00315315
0.00364642
-0.00481166
0.0059193
-0.00639835
0.00865695
-0.00783065
0.0117839
-0.00905937
0.0152181
-0.0100516
-0.0107422
0.0188643
-2.10811e-05
0.000436099
0.00030123
-0.000561742
0.00114245
-0.00239781
0.00256288
-0.00457359
0.00455363
-0.00680241
0.00706158
-0.0089063
0.0100083
-0.0107773
0.0133049
-0.012356
0.0168631
-0.0136098
-0.0144745
0.0205954
6.91091e-05
0.00036699
0.000583294
-0.00107593
0.0016805
-0.00349502
0.003393
-0.00628609
0.00568456
-0.00909396
0.0084757
-0.0116974
0.0116652
-0.0139669
0.0151482
-0.0158389
0.0188289
-0.0172905
-0.0182736
0.022628
0.000170404
0.000196586
0.000906982
-0.00181251
0.00230185
-0.00488989
0.00434971
-0.00833394
0.00697777
-0.011722
0.0100729
-0.0147926
0.0135074
-0.0174014
0.0171598
-0.0194913
0.0209291
-0.0210599
-0.0220894
0.0247449
0.000279687
-8.3101e-05
0.00126108
-0.00279389
0.00298258
-0.0066114
0.00539016
-0.0107415
0.00836406
-0.0146959
0.0117512
-0.0181798
0.0153963
-0.0210465
0.0191648
-0.0232597
0.0229559
-0.024851
-0.0258457
0.0267122
0.000394929
-0.00047803
0.00163661
-0.00403557
0.00370024
-0.00867503
0.00646977
-0.013511
0.00976808
-0.0179942
0.0133988
-0.0218105
0.0171834
-0.0248311
0.0209827
-0.027059
0.0247037
-0.028572
-0.0294481
0.0283061
0.000515211
-0.000993241
0.0020265
-0.00554686
0.00443313
-0.0110817
0.0075421
-0.01662
0.0111103
-0.0215625
0.0148996
-0.0255998
0.0187175
-0.028649
0.0224353
-0.0307767
0.0259821
-0.0321188
-0.0328008
0.0293348
0.000640159
0.00242423
0.00515862
0.00855913
0.0123138
0.0161506
0.0198746
0.0233725
0.0266011
0.0296525
0.0195081
-0.00255478
0.0219346
-0.00242645
0.0242216
-0.00228707
0.0263567
-0.00213505
0.028328
-0.00197128
0.0301289
-0.00180099
0.0317586
-0.00162963
0.0332199
-0.00146136
0.0345193
-0.00129931
0.0356651
-0.0011458
0.0366675
-0.00100243
0.0375376
-0.00087015
0.0382869
-0.000749317
0.0389268
-0.000639842
0.0394681
-0.000541312
0.0399212
-0.000453095
0.0402957
-0.000374463
0.0406001
-0.000304405
0.0408437
-0.00024367
-0.00018099
0.0200803
-0.00502465
0.0224276
-0.00477374
0.0246454
-0.00450489
0.0267201
-0.00420979
0.0286386
-0.00388976
0.0303936
-0.00355604
0.0319838
-0.00321976
0.0334116
-0.00288919
0.0346828
-0.00257051
0.0358054
-0.00226841
0.0367891
-0.00198616
0.0376446
-0.00172566
0.038383
-0.00148765
0.0390151
-0.00127196
0.0395516
-0.0010778
0.0400024
-0.000903916
0.0403768
-0.000748899
0.040683
-0.000610581
0.0409305
-0.000491111
-0.00036572
0.0211686
-0.00732902
0.0233624
-0.00696754
0.0254462
-0.00658868
0.0274045
-0.0061681
0.0292214
-0.00570661
0.0308884
-0.00522304
0.0324032
-0.00473455
0.0337673
-0.00425333
0.0349854
-0.0037886
0.0360645
-0.00334752
0.0370134
-0.00293509
0.037842
-0.00255423
0.0385605
-0.00220611
0.039179
-0.00189053
0.0397075
-0.00160633
0.0401553
-0.00135166
0.0405309
-0.00112453
0.0408419
-0.000921535
0.0410974
-0.00074663
-0.00056099
0.0226628
-0.00939638
0.024639
-0.00894372
0.026533
-0.00848271
0.028327
-0.00796211
0.0300013
-0.00738091
0.0315457
-0.00676744
0.0329564
-0.00614524
0.0342333
-0.00553021
0.0353793
-0.00493465
0.0364001
-0.00436834
0.0373032
-0.00383816
0.0380971
-0.00334815
0.038791
-0.00289995
0.0393938
-0.00249339
0.0399145
-0.002127
0.0403613
-0.00179842
0.0407419
-0.00150511
0.0410627
-0.00124241
0.0413328
-0.00101666
-0.000773693
0.0244011
-0.0111695
0.0261116
-0.0106542
0.0277751
-0.0101463
0.0293703
-0.00955729
0.0308733
-0.00888394
0.0322719
-0.00816602
0.0335601
-0.00743349
0.0347357
-0.00670573
0.0357994
-0.00599834
0.036755
-0.00532395
0.0376083
-0.00469148
0.0383663
-0.00410614
0.0390365
-0.00357016
0.0396266
-0.00308349
0.040144
-0.00264446
0.0405958
-0.0022502
0.0409886
-0.00189785
0.0413274
-0.00158127
0.0416209
-0.00131012
-0.00101308
0.0261874
-0.012612
0.0276064
-0.0120731
0.0290189
-0.0115588
0.030398
-0.0109363
0.0317161
-0.0102021
0.0329592
-0.00940912
0.0341188
-0.00859313
0.03519
-0.00777687
0.0361712
-0.00697951
0.0370639
-0.00621673
0.037872
-0.00549951
0.0386003
-0.00483442
0.0392545
-0.00422441
0.0398407
-0.00366966
0.0403646
-0.00316841
0.0408319
-0.00271745
0.0412478
-0.00231374
0.0416159
-0.00194944
0.0419445
-0.00163867
-0.00129076
0.0278164
-0.0137163
0.0289462
-0.0132029
0.0301095
-0.0127222
0.0312735
-0.0121003
0.0324091
-0.0113377
0.0335009
-0.010501
0.0345381
-0.00963026
0.0355129
-0.00875173
0.0364217
-0.00788825
0.0372634
-0.0070584
0.0380391
-0.00627525
0.0387515
-0.00554684
0.0394041
-0.00487704
0.040001
-0.0042665
0.0405461
-0.00371357
0.0410435
-0.00321483
0.0414971
-0.00276737
0.0419091
-0.00236136
0.042287
-0.00201665
-0.00162088
0.0290929
-0.0145031
0.0299644
-0.0140744
0.0308991
-0.0136568
0.0318655
-0.0130666
0.0328369
-0.0123092
0.0337969
-0.011461
0.0347315
-0.0105648
0.0356308
-0.00965103
0.0364884
-0.00874586
0.0373003
-0.00787038
0.0380649
-0.00703979
0.038782
-0.0062639
0.0394528
-0.00554785
0.0400793
-0.00489304
0.040664
-0.00429823
0.0412091
-0.00375995
0.0417176
-0.00327585
0.0421899
-0.00283368
0.0426336
-0.00246032
-0.00201948
0.0298545
-0.0150228
0.0305367
-0.0147567
0.0312815
-0.0144016
0.032077
-0.0138622
0.0329124
-0.0131445
0.0337696
-0.0123182
0.0346326
-0.0114278
0.0354888
-0.0105072
0.0363277
-0.00958479
0.0371411
-0.00868381
0.0379235
-0.00782216
0.0386717
-0.00701215
0.0393848
-0.00626087
0.0400627
-0.005571
0.0407066
-0.00494215
0.0413178
-0.00437111
0.0418984
-0.00385651
0.0424482
-0.00338339
0.0429746
-0.0029868
-0.00250425
0.0302092
-0.0155795
0.0307364
-0.0152838
0.0313015
-0.0149667
0.0319284
-0.0144891
0.0326297
-0.0138458
0.0333938
-0.0130823
0.034204
-0.012238
0.0350424
-0.0113457
0.035892
-0.0104344
0.0367382
-0.00953001
0.0375701
-0.0086541
0.0383805
-0.00782254
0.0391651
-0.00704545
0.0399218
-0.00632771
0.0406501
-0.00567046
0.0413501
-0.00507111
0.0420235
-0.00452988
0.0426694
-0.00402928
0.0432973
-0.00361473
-0.00310346
0.0505653
-0.0138191
-0.0523257
0.0491047
-0.0138233
0.0477377
-0.0135997
0.0464772
-0.0132286
0.0453534
-0.012722
0.0443712
-0.0121
0.0435267
-0.0113935
0.0428135
-0.0106325
0.0422227
-0.00984362
0.0417433
-0.00905061
0.0413628
-0.00827353
0.041068
-0.00752781
0.0408463
-0.00682375
0.0406855
-0.0061669
0.0405745
-0.00555945
0.0405033
-0.00499986
0.0404636
-0.0044902
0.0404474
-0.00401312
0.0404526
-0.00361995
-0.00312751
0.0516489
-0.012263
-0.053205
0.0501864
-0.0123607
0.0488384
-0.0122517
0.0475956
-0.0119858
0.0464668
-0.0115932
0.04546
-0.0110933
0.0445766
-0.0105101
0.0438133
-0.0098692
0.0431643
-0.00919461
0.0426214
-0.00850771
0.0421747
-0.00782683
0.0418133
-0.00716641
0.0415261
-0.00653654
0.0413023
-0.00594306
0.0411317
-0.00538885
0.041005
-0.00487319
0.0409143
-0.00439946
0.040852
-0.00395088
0.0408126
-0.00358049
-0.00310517
0.0522175
-0.010806
-0.0536745
0.0508276
-0.0109709
0.0495315
-0.0109555
0.048332
-0.0107863
0.0472335
-0.0104947
0.0462428
-0.0101025
0.0453623
-0.00962957
0.0445903
-0.00909725
0.0439224
-0.00852669
0.0433519
-0.00793725
0.0428708
-0.00734569
0.0424699
-0.00676549
0.0421397
-0.00620639
0.0418711
-0.0056744
0.0416551
-0.00517292
0.0414838
-0.00470185
0.0413497
-0.00426544
0.0412463
-0.00384746
0.0411668
-0.00350097
-0.00304742
0.0524512
-0.00947313
-0.0537841
0.0511697
-0.00968941
0.0499578
-0.00974364
0.0488258
-0.00965424
0.0477804
-0.00944934
0.0468277
-0.00914983
0.045971
-0.00877294
0.0452104
-0.00833663
0.044543
-0.00785926
0.0439638
-0.00735806
0.0434663
-0.00684817
0.0430428
-0.00634202
0.0426853
-0.00584892
0.0423859
-0.00537494
0.0421369
-0.00492391
0.0419313
-0.00449625
0.0417627
-0.00409683
0.0416253
-0.00371011
0.0415128
-0.00338848
-0.00296004
0.0524646
-0.00828278
-0.0536549
0.0513058
-0.00853063
0.0501959
-0.0086337
0.0491475
-0.00860586
0.0481695
-0.00847139
0.0472686
-0.00824894
0.0464491
-0.00795341
0.0457124
-0.00759996
0.0450575
-0.00720434
0.0444811
-0.00678162
0.0439782
-0.00634528
0.0435427
-0.00590658
0.0431681
-0.00547427
0.0428475
-0.00505432
0.0425744
-0.00465084
0.0423428
-0.00426468
0.0421472
-0.00390117
0.0419826
-0.00354555
0.0418431
-0.00324892
-0.00284715
0.0523459
-0.00723361
-0.0533951
0.0513105
-0.0074952
0.0503063
-0.00762955
0.049347
-0.00764659
0.0484426
-0.00756697
0.0476004
-0.00740674
0.0468255
-0.00717852
0.0461206
-0.00689507
0.0454861
-0.00656978
0.0449201
-0.00621567
0.0444194
-0.00584455
0.0439793
-0.0054665
0.0435946
-0.00508954
0.0432597
-0.00471942
0.0429692
-0.00436033
0.042718
-0.00401346
0.0425012
-0.00368441
0.042315
-0.00335928
0.0421534
-0.00308732
-0.0027132
0.0521586
-0.00631323
-0.053079
0.0512381
-0.00657474
0.0503349
-0.00672627
0.0494626
-0.0067743
0.0486316
-0.00673596
0.0478495
-0.00662473
0.0471222
-0.00645115
0.046453
-0.00622586
0.0458433
-0.00596016
0.0452929
-0.00566519
0.0447995
-0.00535119
0.04436
-0.00502704
0.0439705
-0.0047
0.0436265
-0.00437544
0.0433237
-0.00405751
0.0430578
-0.00374758
0.0428247
-0.00345135
0.0426213
-0.00315584
0.042442
-0.002908
-0.00256207
0.0519432
-0.00550459
-0.0527518
0.051125
-0.00575655
0.0503134
-0.00591465
0.0495217
-0.00598261
0.04876
-0.00597429
0.0480361
-0.00590083
0.0473559
-0.0057709
0.0467233
-0.00559333
0.0461407
-0.00537756
0.0456086
-0.00513306
0.045126
-0.00486861
0.0446909
-0.00459196
0.0443005
-0.00430958
0.0439515
-0.00402641
0.0436404
-0.00374641
0.0433638
-0.00347102
0.0431184
-0.00320591
0.0429015
-0.00293898
0.0427081
-0.00271457
-0.00239707
0.0517233
-0.00479032
-0.0524375
0.0509936
-0.00502685
0.0502628
-0.0051839
0.0495434
-0.00526323
0.048845
-0.00527589
0.0481751
-0.00523093
0.0475396
-0.00513541
0.0469429
-0.00499658
0.0463876
-0.00482232
0.0458752
-0.00462057
0.0454054
-0.00439884
0.0449772
-0.00416382
0.0445889
-0.0039212
0.0442379
-0.00367545
0.0439218
-0.00343025
0.0436378
-0.00318704
0.0433832
-0.00295129
0.043156
-0.00271185
0.0429515
-0.00251008
-0.00222097
0.0515115
-0.00415485
-0.052147
0.0508572
-0.00437251
0.0501965
-0.00452319
0.0495407
-0.00460744
0.0488987
-0.00463394
0.0482778
-0.00460996
0.0476836
-0.00454121
0.0471206
-0.00443359
0.0465919
-0.00429361
0.0460992
-0.00412793
0.0456433
-0.00394289
0.0452237
-0.00374423
0.0448394
-0.00353692
0.0444889
-0.0033249
0.0441702
-0.00311156
0.0438814
-0.00289825
0.0436202
-0.00269014
0.0433854
-0.00247702
0.0431724
-0.00229706
-0.00203613
0.0513143
-0.0035849
-0.0518843
0.0507236
-0.00378176
0.0501229
-0.00392246
0.0495222
-0.00400681
0.0489299
-0.00404159
0.0483525
-0.00403258
0.0477956
-0.00398434
0.0472637
-0.00390166
0.04676
-0.00378989
0.0462866
-0.00365456
0.0458447
-0.00350099
0.0454346
-0.00333408
0.0450557
-0.00315808
0.0447073
-0.00297646
0.044388
-0.00279225
0.0440964
-0.00260669
0.0438308
-0.00242457
0.0435904
-0.00223662
0.043371
-0.00207761
-0.00184454
0.0511347
-0.00306924
-0.0516504
0.0505973
-0.00324436
0.0500475
-0.00337264
0.0494942
-0.00345353
0.0489449
-0.00349228
0.0484058
-0.00349346
0.0478821
-0.00346068
0.0473782
-0.00339779
0.0468975
-0.00330916
0.0464423
-0.00319936
0.0460141
-0.00307281
0.0456137
-0.00293363
0.0452411
-0.00278546
0.0448959
-0.00263127
0.0445774
-0.00247373
0.0442846
-0.00231393
0.0440163
-0.00215624
0.043772
-0.00199234
0.0435478
-0.00185345
-0.00164783
0.0509739
-0.00259844
-0.0514447
0.050481
-0.00275143
0.0499741
-0.00286569
0.049461
-0.0029405
0.0489487
-0.00297991
0.0484427
-0.00298751
0.0479481
-0.00296612
0.0474692
-0.00291883
0.0470092
-0.00284917
0.0465707
-0.00276086
0.0461555
-0.00265758
0.0457645
-0.00254273
0.0453984
-0.00241936
0.0450572
-0.00228999
0.0447404
-0.00215693
0.0444475
-0.00202111
0.0441777
-0.00188641
0.0439309
-0.00174551
0.0437034
-0.00162593
-0.00144731
0.0508326
-0.00216446
-0.0512666
0.0503765
-0.00229528
0.0499052
-0.00239446
0.049426
-0.00246126
0.0489449
-0.00249882
0.0484673
-0.00250987
0.0479978
-0.00249665
0.0475406
-0.00246158
0.0470989
-0.00240749
0.0466754
-0.00233738
0.0462721
-0.00225423
0.0458902
-0.00216083
0.0455305
-0.00205969
0.0451934
-0.0019529
0.0448789
-0.0018424
0.0445867
-0.00172898
0.0443163
-0.00161599
0.0440679
-0.00149713
0.0438381
-0.00139611
-0.00124403
0.0507109
-0.00176035
-0.051115
0.0502848
-0.00186915
0.0498429
-0.00195258
0.0493916
-0.00200999
0.0489366
-0.00204376
0.0484827
-0.002056
0.0480345
-0.00204842
0.0475958
-0.00202289
0.0471699
-0.00198164
0.0467596
-0.00192705
0.0463668
-0.00186147
0.0459931
-0.00178713
0.0456395
-0.00170607
0.0453066
-0.00161995
0.0449946
-0.00153038
0.0447036
-0.00143799
0.0444332
-0.0013456
0.044184
-0.00124792
0.0439526
-0.00116479
-0.00103882
0.0506088
-0.00138002
-0.0509891
0.0502067
-0.00146704
0.0497884
-0.00153432
0.0493598
-0.00158134
0.048926
-0.00160992
0.0484916
-0.00162162
0.0480609
-0.00161772
0.0476376
-0.00159966
0.0472251
-0.0015691
0.0468259
-0.00152788
0.0464423
-0.00147781
0.0460758
-0.00142062
0.0457275
-0.00135786
0.0453984
-0.00129085
0.0450889
-0.00122083
0.0447992
-0.00114832
0.0445292
-0.00107557
0.0442796
-0.000998341
0.0440474
-0.000932536
-0.000832285
0.050526
-0.00101809
-0.050888
0.0501426
-0.00108362
0.0497428
-0.00113452
0.0493319
-0.00117047
0.0489148
-0.00119282
0.0484959
-0.0012027
0.0480792
-0.00120103
0.0476684
-0.00118883
0.0472666
-0.00116732
0.0468765
-0.00113782
0.0465004
-0.00110165
0.0461398
-0.00106007
0.0457962
-0.00101421
0.0454704
-0.000965055
0.0451631
-0.000913506
0.0448747
-0.000859949
0.0446052
-0.00080605
0.0443555
-0.000748692
0.0441227
-0.000699717
-0.00062488
0.0504625
-0.000669888
-0.0508107
0.050093
-0.000714179
0.049707
-0.000748527
0.0493095
-0.000772898
0.0489049
-0.000788257
0.0484976
-0.000795382
0.0480914
-0.000794864
0.04769
-0.000787366
0.0472963
-0.000773683
0.0469132
-0.00075468
0.0465428
-0.000731219
0.0461868
-0.00070412
0.0458467
-0.000674127
0.0455235
-0.000641877
0.045218
-0.000607963
0.0449307
-0.00057266
0.0446617
-0.000537025
0.0444121
-0.000499101
0.0441789
-0.000466568
-0.000416954
0.0504189
-0.000331384
-0.0507574
0.0500591
-0.000354424
0.0496826
-0.00037195
0.0492939
-0.000384267
0.0488977
-0.00039207
0.0484981
-0.000395796
0.048099
-0.000395718
0.0477038
-0.000392153
0.0473156
-0.000385499
0.0469371
-0.000376188
0.0465705
-0.000364648
0.0462177
-0.000351282
0.04588
-0.000336455
0.0455586
-0.000320489
0.0452543
-0.000303658
0.0449678
-0.000286149
0.0446992
-0.000268358
0.0444497
-0.000249634
0.0442162
-0.000233044
-0.000209074
0.050397
-0.0507284
0.0500426
0.0496707
0.0492864
0.0488943
0.0484985
0.0481028
0.0477106
0.0473251
0.046949
0.0465843
0.046233
0.0458966
0.0455761
0.0452724
0.0449863
0.0447179
0.0444683
0.0442352
0.0466987
0.00599481
-0.0459933
0.0474833
0.00936053
0.0483299
0.012658
0.0492142
0.0158379
0.0500958
0.0188592
0.0509298
0.0216537
0.051607
0.0242315
0.0521334
0.0263342
0.052119
0.0284984
0.0289795
0.0458386
0.00535723
-0.0452011
0.0465826
0.00861657
0.0474217
0.0118188
0.0483398
0.0149198
0.0493041
0.0178949
0.0502976
0.0206602
0.0512211
0.023308
0.0521335
0.0254218
0.0527527
0.0278793
0.0285272
0.0450801
0.004793
-0.0445158
0.0457727
0.00792395
0.0465847
0.0110069
0.0475068
0.0139977
0.0485128
0.0168889
0.0496009
0.0195721
0.0506979
0.0222109
0.051829
0.0242906
0.0528783
0.0268301
0.027731
0.044428
0.00429457
-0.0439296
0.0450702
0.0072818
0.0458497
0.0102273
0.0467617
0.0130857
0.0477867
0.0158639
0.0489218
0.018437
0.0501264
0.0210064
0.0513734
0.0230436
0.0526856
0.0255179
0.0266325
0.0438683
0.00385077
-0.0434245
0.0444665
0.00668365
0.0452149
0.00947887
0.04611
0.0121906
0.0471389
0.014835
0.0482917
0.0172842
0.0495577
0.0197404
0.0508764
0.0217249
0.0523346
0.0240597
0.0253122
0.0433836
0.00345178
-0.0429846
0.043945
0.00612233
0.044666
0.00875787
0.0455425
0.0113141
0.0465678
0.0138097
0.0477258
0.0161262
0.0490249
0.0184412
0.0503923
0.0203575
0.0519257
0.0225263
0.0238428
0.0429606
0.0030897
-0.0425985
0.0434915
0.00559142
0.0441893
0.00806002
0.045049
0.0104544
0.0460679
0.0127909
0.0472266
0.0149674
0.0485411
0.0171267
0.0499416
0.018957
0.0515133
0.0209547
0.0222771
0.0425898
0.00275842
-0.0422586
0.0430955
0.00508573
0.0437741
0.00738149
0.0446196
0.0096089
0.0456312
0.0117793
0.0467892
0.0138094
0.0481094
0.0158065
0.0495327
0.0175337
0.0511248
0.0193627
0.02065
0.0422647
0.00245314
-0.0419594
0.0427492
0.00460119
0.0434115
0.00671925
0.0442452
0.00877516
0.0452497
0.0107748
0.0464068
0.0126523
0.0477285
0.0144848
0.0491673
0.0160949
0.050771
0.017759
0.0189834
0.0419801
0.00216998
-0.0416969
0.0424467
0.00413456
0.0430951
0.00607088
0.0439189
0.00795128
0.0449169
0.00977684
0.0460729
0.0114964
0.0473944
0.0131633
0.0488439
0.0146454
0.0504544
0.0161484
0.0172909
0.0417318
0.00190565
-0.0414675
0.0421832
0.00368315
0.0428197
0.00543439
0.0436353
0.00713574
0.0446274
0.00878471
0.0457822
0.0103416
0.0471029
0.0118426
0.0485595
0.0131887
0.0501743
0.0145336
0.0155809
0.0415166
0.00165745
-0.0412684
0.0419551
0.00324462
0.0425815
0.00480806
0.0433899
0.00632732
0.044377
0.00779764
0.0455303
0.00918821
0.04685
0.0105229
0.0483114
0.0117274
0.0499287
0.0129163
0.0138592
0.0413317
0.00142303
-0.0410972
0.0417592
0.00281706
0.042377
0.00419031
0.0431794
0.0055249
0.0441621
0.00681491
0.0453141
0.00803627
0.0466326
0.00920432
0.048097
0.010263
0.0497154
0.0112979
0.0121299
0.0411743
0.00119806
-0.0409493
0.0415929
0.00239844
0.0422036
0.00357961
0.043001
0.0047275
0.0439801
0.00583582
0.0451306
0.00688575
0.0464481
0.00788684
0.0479142
0.00879684
0.0495328
0.00967941
0.0103961
0.0410433
0.000983402
-0.0408286
0.0414543
0.00198739
0.0420592
0.00297481
0.0428524
0.00393424
0.0438286
0.00485968
0.0449778
0.00573651
0.0462942
0.00657043
0.0477612
0.00732985
0.049379
0.00806157
0.00866004
0.0409367
0.000776782
-0.0407301
0.0413416
0.00158254
0.0419417
0.00237472
0.0427317
0.00314424
0.0437055
0.00388583
0.0448537
0.00458835
0.0461691
0.00525501
0.0476363
0.00586268
0.0492528
0.00644505
0.00692373
0.0408532
0.000576623
-0.040653
0.0412531
0.00118261
0.0418496
0.00177825
0.0426372
0.00235667
0.0436094
0.00291361
0.0447568
0.00344098
0.0460713
0.00394045
0.0475382
0.00439582
0.0491529
0.00483034
0.00518865
0.0407913
0.000381362
-0.040596
0.0411875
0.000786369
0.0417815
0.00118434
0.0425675
0.00157067
0.0435387
0.00194235
0.0446856
0.00229406
0.0459995
0.0026266
0.0474657
0.00292963
0.0490781
0.00321791
0.00345607
0.0407497
0.000190077
-0.0405584
0.0411435
0.000392534
0.041736
0.000591901
0.0425213
0.000785356
0.0434923
0.000971337
0.0446392
0.00114718
0.0459526
0.0013132
0.0474179
0.00146429
0.049028
0.00160786
0.00172665
0.0407281
-0.040538
0.0411206
0.0417125
0.0424979
0.0434692
0.0446164
0.0459296
0.0473939
0.0490018
0.0219198
0.0333845
-0.0309922
-0.0243121
0.0192978
0.0340808
-0.0314587
0.016604
0.0349533
-0.0322595
0.0138453
0.0359907
-0.033232
0.0110229
0.0371684
-0.034346
0.00816112
0.0384135
-0.0355517
0.00534154
0.0393457
-0.0365262
0.00276332
0.0387435
-0.0361652
0.000801818
0.0336324
-0.0316709
0.0180881
-0.0172863
0.0195865
0.0358031
-0.0220052
0.0171493
0.036518
0.0146713
0.0374313
0.01214
0.038522
0.00955064
0.0397577
0.00693421
0.0410299
0.00439257
0.0418874
0.00214457
0.0409915
0.000544054
0.0352329
0.0186322
0.0171998
0.0380115
-0.0194082
0.014944
0.0387738
0.0126543
0.0397209
0.0103287
0.0408476
0.00796684
0.0421196
0.00560732
0.0433895
0.00336797
0.0441267
0.001484
0.0428754
0.000273685
0.0364432
0.0189059
0.0146278
0.0400085
-0.0166247
0.0125815
0.0408201
0.0105029
0.0417995
0.00839827
0.0429523
0.00627805
0.0442398
0.0041948
0.0454727
0.00228116
0.0460403
0.000787039
0.0443696
-4.44799e-06
0.0372347
0.0189014
0.011874
0.0417851
-0.0136506
0.0100559
0.0426383
0.00821017
0.0436452
0.00634693
0.0448155
0.00448809
0.0460987
0.00270321
0.0472576
0.00114652
0.047597
1.26847e-05
0.0455034
-0.000279495
0.0375269
0.0186219
0.00896204
0.0433219
-0.0104988
0.0073899
0.0442104
0.0057936
0.0452415
0.00418945
0.0464197
0.00261333
0.0476748
0.00115091
0.04872
-3.68373e-05
0.0487848
-0.00062628
0.0460928
-0.000525416
0.037426
0.0180965
0.00592362
0.0446019
-0.00720364
0.00460958
0.0455244
0.00327629
0.0465748
0.00194896
0.047747
0.000678164
0.0489456
-0.000426139
0.0498243
-0.00116003
0.0495187
-0.0013064
0.0462392
-0.000760476
0.0368801
0.017336
0.00278782
0.0456197
-0.00380558
0.00173723
0.046575
0.000683236
0.0476288
-0.00035078
0.048781
-0.00129604
0.0498908
-0.00201631
0.0505446
-0.00231068
0.049813
-0.00196222
0.0458907
-0.000973584
0.0358914
0.0163624
-0.000425501
0.0464113
-0.000366088
-0.00119676
0.0473463
-0.00196754
0.0483996
-0.00269509
0.0495086
-0.00328977
0.0504855
-0.0036024
0.0508572
-0.00342283
0.0496335
-0.00257065
0.0450386
-0.00115593
0.0344767
0.0152065
-0.00367266
0.00322181
-0.00416171
-0.004637
-0.00503935
-0.00526269
-0.00513985
-0.00446515
-0.00311083
-0.00130018
0.0313349
0.00314493
-0.0344799
0.0280842
0.00325073
0.024716
0.00336819
0.0212182
0.00349784
0.0175736
0.00364461
0.0137648
0.0038088
0.00979663
0.00396814
0.00577519
0.00402144
0.00211779
0.0036574
0.00211779
0.0312013
0.00628678
-0.0343431
0.0279552
0.00649683
0.0245937
0.00672967
0.0211047
0.00698687
0.0174711
0.00727819
0.0136758
0.00760408
0.00972367
0.00792028
0.00572272
0.00802239
0.00209788
0.00728224
0.00421567
0.030929
0.00942166
-0.0340639
0.0276927
0.00973316
0.0243449
0.0100774
0.0208736
0.0104582
0.017262
0.0108898
0.0134939
0.0113722
0.00957658
0.0118376
0.00562169
0.0119773
0.00205103
0.0108529
0.00626671
0.0305092
0.0125436
-0.0336312
0.0272896
0.0129528
0.023964
0.0134031
0.0205206
0.0139015
0.0169432
0.0144672
0.0132171
0.0150984
0.00935298
0.0157017
0.00546749
0.0158628
0.00198129
0.0143391
0.008248
0.0299304
0.0156446
-0.0330314
0.0267361
0.0161471
0.0234426
0.0166966
0.0200387
0.0173054
0.016509
0.0179969
0.0128409
0.0187666
0.00904964
0.0194929
0.00525878
0.0196536
0.00188751
0.0177104
0.0101355
0.0291812
0.0187156
-0.0322522
0.0260209
0.0193073
0.0227697
0.0199478
0.0194182
0.0206569
0.0159514
0.0214636
0.012359
0.022359
0.00866234
0.0231895
0.00499327
0.0233227
0.00176886
0.0209348
0.0119044
0.0282477
0.0217471
-0.0312792
0.0251321
0.0224229
0.0219362
0.0231437
0.0186519
0.0239412
0.0152643
0.0248512
0.0117663
0.0258569
0.00818722
0.0267687
0.00466886
0.0268411
0.00162481
0.0239788
0.0135292
0.0271325
0.0247423
-0.0301277
0.024055
0.0255004
0.0209264
0.0262723
0.0177274
0.0271402
0.0144383
0.0281403
0.0110565
0.0292387
0.00762053
0.0302046
0.00428396
0.0301776
0.00145525
0.0268075
0.0149844
0.0257401
0.027756
-0.0287538
0.0227202
0.0285202
0.0196956
0.0292969
0.016611
0.0302249
0.0134493
0.031302
0.0102147
0.0324733
0.0069549
0.0334645
0.00383613
0.0332964
0.00126017
0.0293835
0.0162446
0.0242903
-0.0275265
0.0213517
0.0183892
0.015382
0.012338
0.00925959
0.00619792
0.00332911
0.00104171
0.038613
-0.000173291
0.0387845
-0.000171502
0.0389479
-0.00016333
0.0390989
-0.000151018
0.0392335
-0.000134621
0.0393475
-0.000114011
0.0394364
-8.88765e-05
0.0394953
-5.88768e-05
0.0395192
-2.39388e-05
0.0394993
1.99174e-05
0.0394245
7.47509e-05
0.039288
0.000136538
0.0390805
0.000207524
0.0387911
0.00028936
0.0384074
0.000383718
0.0379149
0.000492498
0.037297
0.000617897
0.0365344
0.000762568
0.0356052
0.000929169
0.00112538
0.038711
-0.000336834
0.038872
-0.000332482
0.0390243
-0.000315613
0.039164
-0.000290772
0.0392873
-0.000257891
0.0393899
-0.000216587
0.0394672
-0.000166223
0.0395146
-0.000106203
0.0395272
-3.65846e-05
0.0394937
5.3463e-05
0.0394059
0.000162482
0.0392565
0.00028595
0.0390362
0.000427891
0.038734
0.000591515
0.0383376
0.000780154
0.0378324
0.000997629
0.037202
0.00124836
0.0364267
0.00153785
0.0354844
0.00187141
0.00226669
0.0389044
-0.000478124
0.0390428
-0.000470876
0.0391724
-0.00044521
0.0392893
-0.000407644
0.0393895
-0.000358064
0.0394687
-0.000295873
0.0395227
-0.000220161
0.0395467
-0.000130171
0.0395368
-2.67308e-05
0.039476
0.000114271
0.0393621
0.000276325
0.0391869
0.000461233
0.0389406
0.000674113
0.0386127
0.000919501
0.0381905
0.00120233
0.0376597
0.00152836
0.0370039
0.00190425
0.036203
0.00233868
0.0352353
0.00283917
0.00343807
0.0391852
-0.000585346
0.0392888
-0.000574529
0.0393836
-0.000539974
0.0394655
-0.000489589
0.0395306
-0.000423156
0.0395746
-0.00033985
0.039593
-0.000238575
0.0395815
-0.000118648
0.0395336
2.11194e-05
0.0394324
0.000215493
0.0392791
0.000429682
0.0390645
0.000675839
0.038779
0.000959617
0.0384117
0.00128672
0.0379505
0.00166361
0.0373808
0.00209797
0.0366866
0.00259852
0.0358476
0.00317766
0.0348432
0.00384356
0.00465011
0.0395427
-0.000645743
0.0395987
-0.000630471
0.0396456
-0.000586898
0.0396796
-0.000523573
0.0396966
-0.000440206
0.0396927
-0.000335947
0.0396641
-0.000209948
0.0396083
-6.28175e-05
0.0394965
0.000132857
0.0393443
0.000367734
0.0391389
0.00063511
0.0388717
0.000942995
0.0385334
0.00129795
0.0381132
0.00170693
0.037599
0.00217778
0.0369769
0.00272006
0.0362313
0.00334413
0.035342
0.00406697
0.0342916
0.00489396
0.00591033
0.0399645
-0.000645698
0.0399591
-0.000625131
0.0399449
-0.000572731
0.039918
-0.000496584
0.0398741
-0.000396321
0.0398089
-0.000270789
0.0397194
-0.000120452
0.0395919
6.46733e-05
0.0394149
0.000309835
0.0391957
0.000587022
0.0389235
0.000907317
0.0385893
0.00127712
0.0381838
0.00170345
0.0376964
0.00219434
0.0371155
0.0027587
0.0364276
0.00340795
0.0356186
0.00415315
0.0346682
0.0050173
0.0335652
0.00599702
0.00722334
0.0404364
-0.00057018
0.0403546
-0.000543287
0.0402644
-0.000482515
0.0401614
-0.00039364
0.0400412
-0.000276085
0.0399026
-0.000132221
0.0397413
4.09243e-05
0.0395192
0.000286709
0.0392658
0.000563271
0.038967
0.000885778
0.0386143
0.00126
0.0381991
0.00169239
0.0377119
0.00219061
0.0371428
0.00276348
0.0364808
0.00342063
0.0357135
0.00417529
0.034829
0.00503765
0.0338071
0.00603919
0.0326469
0.00715722
0.008591
0.0409466
-0.00040482
0.0407754
-0.000372026
0.0405956
-0.000302787
0.0404039
-0.000201911
0.0402021
-7.42512e-05
0.0399697
0.000100211
0.0396847
0.000325863
0.0393789
0.000592546
0.0390339
0.000908211
0.038642
0.00127772
0.0381952
0.00170682
0.0376851
0.00220248
0.037103
0.00277267
0.0364398
0.00342666
0.0356863
0.00417417
0.0348316
0.00503003
0.0338674
0.0060018
0.0327731
0.00713355
0.0315573
0.00837297
0.0100206
0.0414725
-0.00013193
0.0411943
-9.38298e-05
0.0409202
-2.86828e-05
0.0406286
8.96282e-05
0.0403033
0.000251074
0.0399507
0.000452855
0.0395749
0.000701609
0.0391647
0.00100273
0.0387129
0.00136003
0.0382123
0.00177833
0.0376552
0.00226387
0.0370337
0.00282405
0.0363393
0.00346703
0.0355637
0.00420229
0.0346987
0.00503916
0.0337356
0.00599314
0.0326708
0.00706657
0.0314891
0.00831527
0.0302253
0.0096368
0.0114921
0.0420562
0.000267378
0.041654
0.000308418
0.0412339
0.000391384
0.0408035
0.000520056
0.0403593
0.000695212
0.0398929
0.000919276
0.0393975
0.00119696
0.0388675