/*--------------------------------*- C++ -*----------------------------------*\
| =========                 |                                                 |
| \\      /  F ield         | OpenFOAM: The Open Source CFD Toolbox           |
|  \\    /   O peration     | Version:  4.1                                   |
|   \\  /    A nd           | Web:      www.OpenFOAM.org                      |
|    \\/     M anipulation  |                                                 |
\*---------------------------------------------------------------------------*/
FoamFile
{
    version     2.0;
    format      ascii;
    class       volVectorField;
    location    "3";
    object      U;
}
// * * * * * * * * * * * * * * * * * * * * * * * * * * * * * * * * * * * * * //

dimensions      [0 1 -1 0 0 0 0];

internalField   nonuniform List<vector> 
2000
(
(0.0328781 -0.0231844 -4.56823e-21)
(0.144796 -0.0882374 0)
(0.282611 -0.144912 -1.26088e-20)
(0.418614 -0.190297 -7.58205e-21)
(0.537417 -0.222293 1.42346e-20)
(0.632087 -0.24135 2.58105e-20)
(0.701748 -0.249673 -7.66161e-21)
(0.749236 -0.249858 0)
(0.779049 -0.244203 9.99676e-21)
(0.791975 -0.240511 0)
(0.0484268 -0.0300308 2.3208e-21)
(0.188975 -0.0994284 -3.1975e-21)
(0.349542 -0.15303 9.76267e-21)
(0.499055 -0.191937 1.81234e-20)
(0.622024 -0.216443 -1.97729e-22)
(0.713718 -0.228515 -8.80119e-21)
(0.776159 -0.23117 8.57291e-21)
(0.81471 -0.227245 9.92876e-21)
(0.835421 -0.219337 -9.99679e-21)
(0.841206 -0.214212 -2.18542e-20)
(0.0673943 -0.035988 -1.67099e-21)
(0.239527 -0.106837 1.56519e-21)
(0.421912 -0.154554 -5.0447e-21)
(0.58136 -0.185136 -2.80895e-22)
(0.704059 -0.201517 -7.12859e-21)
(0.788907 -0.206991 -8.22923e-21)
(0.841486 -0.205064 -9.18354e-21)
(0.869695 -0.198577 -9.92883e-21)
(0.880936 -0.190032 -1.10881e-20)
(0.879878 -0.183963 1.14509e-20)
(0.089768 -0.0403838 -3.81756e-22)
(0.295527 -0.109032 1.1075e-21)
(0.497461 -0.148155 0)
(0.66239 -0.169261 -6.69925e-21)
(0.780349 -0.177743 6.25083e-21)
(0.855147 -0.177716 0)
(0.896254 -0.172655 0)
(0.913873 -0.164962 0)
(0.916395 -0.15661 1.10883e-20)
(0.90925 -0.15056 -2.3869e-20)
(0.115321 -0.0425103 -1.09799e-21)
(0.355488 -0.104733 -3.46827e-22)
(0.573426 -0.132979 -1.98562e-21)
(0.738951 -0.144327 -2.70288e-21)
(0.848188 -0.145951 -4.04543e-21)
(0.910715 -0.142071 -4.94282e-21)
(0.939778 -0.135598 0)
(0.947377 -0.128219 -6.15248e-21)
(0.942381 -0.121269 3.23525e-20)
(0.930427 -0.116148 -4.36182e-20)
(0.143576 -0.0416679 1.0688e-21)
(0.417412 -0.0929549 5.23146e-22)
(0.646803 -0.108752 4.66422e-21)
(0.808144 -0.110955 -5.50478e-21)
(0.905574 -0.107384 1.37977e-20)
(0.954734 -0.101554 -4.21307e-21)
(0.972147 -0.0953434 0)
(0.970931 -0.0895434 6.15264e-21)
(0.959915 -0.0847765 -6.48661e-21)
(0.944364 -0.0812642 -2.96371e-20)
(0.173784 -0.0372259 0)
(0.478915 -0.0731459 0)
(0.71465 -0.0758165 3.04475e-21)
(0.86762 -0.0702661 -2.83463e-21)
(0.951272 -0.0635388 5.50607e-21)
(0.987039 -0.0576908 -5.16944e-21)
(0.993927 -0.0532465 -1.41149e-20)
(0.985467 -0.050057 1.33417e-20)
(0.96998 -0.0480595 1.55009e-20)
(0.951995 -0.0466304 -7.41607e-21)
(0.204937 -0.0286925 -3.44108e-22)
(0.537423 -0.0452834 0)
(0.774343 -0.0350833 2.07237e-21)
(0.915693 -0.0237219 -8.49565e-21)
(0.984746 -0.0159935 7.79741e-21)
(1.00797 -0.0118838 0)
(1.00594 -0.0104091 0)
(0.99193 -0.0105434 0)
(0.973416 -0.0116307 1.71022e-20)
(0.954005 -0.0126185 -1.62553e-20)
(0.235816 -0.0157865 -5.41429e-23)
(0.590412 -0.00990816 -2.68701e-22)
(0.82375 0.012077 1.58039e-21)
(0.951345 0.0270229 -1.43169e-21)
(1.00601 0.0336931 -1.15473e-21)
(1.01819 0.0345974 -3.43852e-21)
(1.00908 0.0322239 0)
(0.991192 0.0283307 2.34508e-21)
(0.970924 0.0240257 1.18685e-20)
(0.950936 0.020398 -8.98852e-21)
(0.265074 0.00149753 0)
(0.635624 0.0319315 6.4174e-22)
(0.861325 0.0639781 0)
(0.974144 0.0802325 5.22888e-22)
(1.01547 0.0840416 5.03523e-22)
(1.01848 0.0806251 2.00038e-21)
(1.0042 0.0738423 0)
(0.983973 0.0659862 -2.34517e-21)
(0.963071 0.0584518 -2.4111e-21)
(0.943299 0.0520622 -2.62539e-21)
(-0.00305371 0.00166939 0)
(-0.00554967 -0.000173979 1.82852e-21)
(-0.00105987 -0.0041426 0)
(0.0121146 -0.00880298 2.55294e-21)
(0.0330492 -0.0134638 8.34922e-22)
(0.0602133 -0.0177349 -1.65578e-21)
(0.0919626 -0.0213983 1.55928e-21)
(0.126715 -0.0243317 -1.53672e-21)
(0.163065 -0.0264378 1.48692e-23)
(0.19974 -0.027468 -1.42573e-21)
(-0.00329469 0.00473867 5.64807e-21)
(-0.00436591 -0.00095693 -3.60498e-21)
(0.00266558 -0.0127911 3.38162e-21)
(0.0187154 -0.026633 -1.67575e-21)
(0.0425038 -0.0404163 -8.16586e-21)
(0.0722991 -0.05299 3.12019e-21)
(0.106306 -0.063718 0)
(0.142844 -0.0722548 1.53159e-21)
(0.180506 -0.0783349 1.4813e-21)
(0.218158 -0.0812442 0)
(-0.00365511 0.00702284 -3.73695e-21)
(-0.00177788 -0.00296457 0)
(0.0103351 -0.0225093 -1.0176e-20)
(0.0320581 -0.0451117 1.29273e-20)
(0.0614613 -0.0674239 -2.96909e-21)
(0.0963802 -0.0875932 0)
(0.134725 -0.104613 0)
(0.174635 -0.117976 0)
(0.214696 -0.127325 -1.16019e-20)
(0.254098 -0.131569 1.10272e-20)
(-0.00386761 0.00809304 0)
(0.00262487 -0.00684595 6.76103e-21)
(0.0223311 -0.0338676 -1.27595e-20)
(0.0524268 -0.0645365 6.04791e-21)
(0.0899959 -0.0944126 -6.19409e-21)
(0.132236 -0.121032 1.79825e-20)
(0.176636 -0.1431 4.62731e-22)
(0.221098 -0.160045 -1.12727e-20)
(0.264203 -0.171544 -1.12801e-20)
(0.305744 -0.176236 1.60522e-20)
(-0.00356818 0.00766128 -6.86243e-21)
(0.00945202 -0.0130574 1.21889e-20)
(0.0392248 -0.0471969 -3.44766e-22)
(0.0802084 -0.0849852 7.05857e-23)
(0.128167 -0.121113 -6.20238e-21)
(0.179458 -0.15264 1.65282e-20)
(0.231057 -0.178111 0)
(0.28063 -0.197029 5.38534e-21)
(0.326787 -0.20926 -5.29342e-21)
(0.370272 -0.213255 2.07816e-20)
(-0.00234176 0.00561591 -1.68481e-22)
(0.019445 -0.0217776 -1.16968e-20)
(0.0617328 -0.0625421 -5.7811e-21)
(0.115864 -0.106243 -4.81846e-21)
(0.175968 -0.146982 -5.54797e-21)
(0.237384 -0.181542 -5.4963e-21)
(0.296543 -0.208483 0)
(0.350972 -0.227548 -5.3852e-21)
(0.399434 -0.238972 -1.58104e-20)
(0.443948 -0.241031 4.83252e-21)
(0.000247067 0.00198757 1.30367e-22)
(0.0334203 -0.0328874 -5.13339e-21)
(0.0906553 -0.0795865 0)
(0.15985 -0.127716 1.12047e-20)
(0.233221 -0.171135 -9.67901e-21)
(0.304989 -0.206615 0)
(0.371129 -0.232969 0)
(0.429248 -0.250369 0)
(0.47852 -0.259549 9.88646e-21)
(0.522393 -0.258576 2.00293e-20)
(0.00465432 -0.00305016 4.85404e-21)
(0.052232 -0.0459431 -4.54684e-21)
(0.126771 -0.0976106 -8.71354e-21)
(0.21246 -0.14839 8.58905e-22)
(0.299397 -0.192321 -8.8994e-21)
(0.380731 -0.226516 -9.13725e-21)
(0.452258 -0.250324 -9.37891e-21)
(0.512046 -0.264524 -9.56444e-21)
(0.560113 -0.27034 -9.88625e-21)
(0.601066 -0.26572 9.83702e-21)
(0.0113049 -0.00919422 1.15256e-20)
(0.0766686 -0.0602131 4.61066e-21)
(0.170691 -0.115505 1.70737e-20)
(0.273637 -0.166853 8.67362e-21)
(0.373416 -0.208991 6.46627e-22)
(0.4624 -0.23978 9.77572e-21)
(0.536712 -0.259399 -8.4562e-21)
(0.595454 -0.269331 9.56425e-21)
(0.640078 -0.27108 -9.60527e-21)
(0.675497 -0.263342 1.92581e-20)
(0.020595 -0.0160593 -7.32437e-21)
(0.107383 -0.0747119 0)
(0.222706 -0.131827 -7.71265e-21)
(0.342784 -0.181409 9.01837e-23)
(0.45355 -0.219475 7.71963e-22)
(0.547212 -0.245037 -9.28368e-21)
(0.620941 -0.259293 2.59797e-20)
(0.675465 -0.26437 0)
(0.714046 -0.261905 9.60518e-21)
(0.74063 -0.253893 0)
(0.23421 -0.0265593 0)
(0.267418 -0.0253223 1.37163e-21)
(0.299065 -0.0239723 -2.72405e-21)
(0.329147 -0.0225064 1.18608e-21)
(0.357501 -0.020936 0)
(0.383957 -0.0193082 -1.20701e-21)
(0.408424 -0.0176735 1.213e-21)
(0.43089 -0.0160713 0)
(0.45139 -0.0145312 0)
(0.469995 -0.0130747 -1.20618e-22)
(0.486801 -0.0117171 0)
(0.501925 -0.0104668 0)
(0.515495 -0.00932715 0)
(0.527643 -0.00829701 0)
(0.538497 -0.00737226 1.21257e-22)
(0.54819 -0.00654675 -1.21886e-22)
(0.55681 -0.00581324 0)
(0.564615 -0.00516265 2.50914e-23)
(0.57108 -0.00459948 -2.52234e-23)
(0.579134 -0.0040288 0)
(0.251902 -0.0784934 0)
(0.283526 -0.0748755 -3.39731e-22)
(0.313435 -0.0709274 0)
(0.34196 -0.0666104 -5.03502e-21)
(0.368905 -0.0619712 4.90493e-21)
(0.394049 -0.0571598 -3.07423e-22)
(0.417301 -0.0523267 2.27743e-21)
(0.43866 -0.0475878 -4.70556e-21)
(0.458164 -0.0430307 3.88449e-21)
(0.475881 -0.0387204 -2.12254e-21)
(0.491902 -0.0347021 -1.67252e-21)
(0.506336 -0.0310016 2.98358e-21)
(0.519305 -0.0276284 -1.50957e-21)
(0.530931 -0.0245793 -7.29532e-22)
(0.541336 -0.0218421 5.76819e-22)
(0.550643 -0.0193983 -1.09587e-22)
(0.55893 -0.017227 -8.60551e-23)
(0.566454 -0.0152989 -9.97307e-23)
(0.572669 -0.0136359 1.00214e-22)
(0.580469 -0.0119255 -1.36589e-23)
(0.28622 -0.126921 3.33937e-22)
(0.314733 -0.121184 3.40311e-22)
(0.341281 -0.114928 3.31572e-22)
(0.366786 -0.107994 0)
(0.390985 -0.1005 5.62662e-21)
(0.413571 -0.0927188 -4.39683e-21)
(0.434459 -0.084898 0)
(0.453668 -0.0772236 5.52202e-22)
(0.471241 -0.0698385 2.58471e-22)
(0.487238 -0.062851 -3.18495e-21)
(0.50174 -0.056336 3.41513e-22)
(0.514843 -0.0503362 3.74756e-21)
(0.526651 -0.0448673 1.77301e-22)
(0.537274 -0.0399239 1.54455e-22)
(0.546813 -0.0354861 1.32394e-22)
(0.555378 -0.0315234 -2.79374e-22)
(0.563029 -0.0280022 2.66822e-22)
(0.570007 -0.0248711 2.95111e-22)
(0.575765 -0.0221803 6.31767e-23)
(0.583056 -0.0193726 1.53805e-24)
(0.335103 -0.169703 1.02285e-20)
(0.359083 -0.162272 -5.41695e-23)
(0.380862 -0.154162 -4.6697e-22)
(0.402061 -0.144995 -1.04739e-20)
(0.422322 -0.135002 -9.45328e-22)
(0.44124 -0.124606 -3.05148e-22)
(0.458745 -0.114143 8.45189e-21)
(0.474886 -0.103861 -5.08215e-21)
(0.489709 -0.093954 -4.26386e-21)
(0.503264 -0.0845746 3.89214e-21)
(0.515612 -0.075827 -3.36524e-22)
(0.526832 -0.0677703 -3.93086e-21)
(0.537005 -0.0604263 -1.75823e-22)
(0.546215 -0.0537881 -1.44933e-21)
(0.55454 -0.047828 1.01245e-21)
(0.562066 -0.0425044 7.71843e-22)
(0.568826 -0.0377727 -6.88248e-22)
(0.575041 -0.0335585 0)
(0.580167 -0.0299483 -1.11669e-22)
(0.586739 -0.0261323 -1.32323e-23)
(0.395523 -0.205039 -2.06848e-20)
(0.41375 -0.19651 9.71593e-21)
(0.429663 -0.187143 -1.0372e-20)
(0.445538 -0.176257 0)
(0.460892 -0.164257 6.28224e-22)
(0.475236 -0.15173 9.44422e-21)
(0.488537 -0.139088 1.08337e-22)
(0.500877 -0.126632 -5.3313e-22)
(0.512303 -0.11461 -8.48388e-21)
(0.522848 -0.103215 -4.74668e-22)
(0.532552 -0.0925811 0)
(0.541467 -0.0827841 3.92983e-22)
(0.549647 -0.0738519 0)
(0.557141 -0.0657761 3.05468e-22)
(0.563997 -0.0585228 0)
(0.570266 -0.0520403 0)
(0.575954 -0.0462753 -1.67751e-22)
(0.581249 -0.0411292 1.94577e-22)
(0.585618 -0.0367377 -1.71393e-22)
(0.591318 -0.032019 4.92786e-23)
(0.4637 -0.231606 0)
(0.475257 -0.222727 6.42553e-22)
(0.484617 -0.21279 2.03615e-20)
(0.494494 -0.200804 -1.97301e-20)
(0.504267 -0.1874 6.18304e-22)
(0.5134 -0.173329 0)
(0.521921 -0.159064 8.95754e-21)
(0.529954 -0.14495 -1.68587e-20)
(0.537542 -0.131291 8.95963e-21)
(0.544699 -0.118324 4.75953e-22)
(0.551442 -0.106212 4.36589e-22)
(0.557791 -0.0950452 3.95069e-22)
(0.563759 -0.0848583 0)
(0.569359 -0.0756429 -1.95296e-21)
(0.574595 -0.0673602 4.41596e-21)
(0.579486 -0.0599499 -1.89404e-21)
(0.584 -0.0533534 1.68323e-22)
(0.588286 -0.0474455 1.20908e-22)
(0.591835 -0.0424282 -4.88647e-23)
(0.596571 -0.0369254 4.8372e-23)
(0.535477 -0.248658 -1.98462e-20)
(0.539874 -0.24026 0)
(0.542465 -0.230458 6.30407e-22)
(0.546047 -0.218041 -1.26053e-21)
(0.549881 -0.203921 -1.23538e-21)
(0.553459 -0.188982 -5.98608e-22)
(0.556901 -0.173722 -5.74887e-22)
(0.560368 -0.158534 7.90112e-21)
(0.563905 -0.143776 -9.44832e-21)
(0.567506 -0.129728 -8.21304e-21)
(0.571159 -0.11658 6.81838e-21)
(0.574843 -0.104439 -7.84803e-22)
(0.57853 -0.0933501 2.61369e-21)
(0.582183 -0.0833074 -6.57358e-22)
(0.585764 -0.0742701 -2.76564e-21)
(0.589247 -0.066172 -2.14345e-22)
(0.592566 -0.058954 2.37786e-22)
(0.595822 -0.0524609 -3.05347e-22)
(0.598544 -0.0469794 -4.52152e-22)
(0.60229 -0.0408194 -2.4443e-23)
(0.606894 -0.256254 0)
(0.604174 -0.24927 2.01387e-20)
(0.600203 -0.240286 -2.06839e-20)
(0.59748 -0.228055 6.30485e-22)
(0.595257 -0.213879 1.23569e-21)
(0.593201 -0.198726 5.98067e-22)
(0.591537 -0.183105 1.15013e-21)
(0.590449 -0.167452 0)
(0.589971 -0.152167 5.08849e-22)
(0.590074 -0.137559 4.71359e-22)
(0.590706 -0.123837 4.38095e-22)
(0.591798 -0.111128 7.85055e-22)
(0.59327 -0.0994896 0)
(0.595037 -0.0889225 0)
(0.597016 -0.0793907 2.55312e-22)
(0.599138 -0.0708272 1.92898e-21)
(0.601304 -0.0631803 -1.33643e-21)
(0.603563 -0.0562625 1.19055e-22)
(0.605495 -0.0504628 2.36087e-22)
(0.60828 -0.0437608 -6.96391e-23)
(0.674648 -0.256176 -2.0071e-20)
(0.665452 -0.251607 0)
(0.655406 -0.243685 0)
(0.64654 -0.231944 2.01195e-20)
(0.638308 -0.218134 -9.57843e-22)
(0.630753 -0.203199 -3.845e-20)
(0.624199 -0.187666 1.8243e-20)
(0.618811 -0.172016 0)
(0.614589 -0.156667 0)
(0.611462 -0.141936 0)
(0.609322 -0.128047 -2.11728e-22)
(0.608042 -0.115143 -5.8872e-22)
(0.607488 -0.103293 -5.23905e-21)
(0.607526 -0.0925047 5.04923e-21)
(0.608029 -0.0827466 -1.87836e-21)
(0.608891 -0.0739516 1.65737e-21)
(0.609984 -0.066081 0)
(0.611312 -0.0589124 -5.60585e-23)
(0.612517 -0.0529535 -6.90947e-23)
(0.614425 -0.045848 0)
(0.736793 -0.250385 3.14003e-22)
(0.722416 -0.246708 2.07706e-20)
(0.706495 -0.239083 -2.05537e-20)
(0.691499 -0.228413 0)
(0.677572 -0.215919 -1.99563e-20)
(0.665 -0.202144 3.89771e-20)
(0.654049 -0.187555 -1.90299e-20)
(0.644817 -0.172619 0)
(0.637263 -0.157748 -8.03863e-21)
(0.631263 -0.143292 1.53559e-20)
(0.626653 -0.129527 -7.54153e-21)
(0.623254 -0.116647 1.95685e-22)
(0.620886 -0.104762 0)
(0.619372 -0.093912 4.67622e-21)
(0.618546 -0.0840875 -6.36851e-21)
(0.618268 -0.0752299 1.86787e-21)
(0.618388 -0.0673216 1.12734e-21)
(0.618866 -0.060102 -7.99635e-22)
(0.619415 -0.0542092 -3.7126e-22)
(0.620612 -0.047011 0)
(0.795501 -0.226537 0)
(0.772622 -0.225896 0)
(0.749002 -0.222032 0)
(0.727963 -0.21592 0)
(0.709576 -0.207564 0)
(0.693398 -0.197226 0)
(0.679295 -0.185424 0)
(0.667257 -0.172683 0)
(0.657206 -0.159467 0)
(0.64898 -0.14619 0)
(0.642386 -0.133203 0)
(0.63722 -0.120771 0)
(0.63328 -0.109071 0)
(0.630373 -0.0981973 0)
(0.628316 -0.0881835 0)
(0.626949 -0.0790018 0)
(0.62612 -0.070674 0)
(0.625737 -0.0629273 0)
(0.625617 -0.0565308 0)
(0.625995 -0.0485924 0)
(0.810362 -0.201762 0)
(0.789093 -0.202401 0)
(0.766117 -0.199885 0)
(0.745245 -0.194971 0)
(0.726887 -0.188004 0)
(0.710502 -0.179331 0)
(0.695912 -0.169383 0)
(0.683168 -0.158586 0)
(0.672262 -0.147323 0)
(0.663082 -0.135933 0)
(0.655474 -0.124708 0)
(0.649271 -0.113874 0)
(0.644301 -0.103587 0)
(0.640393 -0.0939329 0)
(0.637385 -0.0849525 0)
(0.635121 -0.0766291 0)
(0.633478 -0.069007 0)
(0.632308 -0.061822 0)
(0.631582 -0.0558873 0)
(0.630996 -0.0483539 0)
(0.818345 -0.178006 0)
(0.798332 -0.179986 0)
(0.776504 -0.179093 0)
(0.756406 -0.175799 0)
(0.738581 -0.170557 0)
(0.722543 -0.163711 0)
(0.708102 -0.155599 0)
(0.695311 -0.146578 0)
(0.684182 -0.136993 0)
(0.674634 -0.12716 0)
(0.666538 -0.117352 0)
(0.659755 -0.107784 0)
(0.65414 -0.0986118 0)
(0.649546 -0.0899257 0)
(0.645836 -0.0817748 0)
(0.642867 -0.0741528 0)
(0.64055 -0.0671195 0)
(0.638694 -0.0604192 0)
(0.637429 -0.0548765 0)
(0.636009 -0.0476941 0)
(0.821118 -0.156278 0)
(0.802689 -0.159277 0)
(0.782469 -0.159665 0)
(0.763622 -0.157754 0)
(0.746715 -0.153988 0)
(0.73136 -0.148704 0)
(0.717393 -0.142193 0)
(0.704871 -0.134756 0)
(0.693827 -0.126698 0)
(0.684207 -0.118302 0)
(0.67591 -0.109815 0)
(0.668819 -0.101439 0)
(0.662812 -0.0933214 0)
(0.657762 -0.085556 0)
(0.653554 -0.0781996 0)
(0.650056 -0.0712551 0)
(0.647213 -0.0647938 0)
(0.644795 -0.0585699 0)
(0.643088 -0.0534024 0)
(0.640967 -0.0465747 0)
(0.820338 -0.136744 0)
(0.803717 -0.140404 0)
(0.78537 -0.141699 0)
(0.76805 -0.140865 0)
(0.752305 -0.138306 0)
(0.737848 -0.13433 0)
(0.724559 -0.129187 0)
(0.712506 -0.123133 0)
(0.701738 -0.116429 0)
(0.692229 -0.109324 0)
(0.683904 -0.10204 0)
(0.676672 -0.0947613 0)
(0.670434 -0.0876266 0)
(0.665082 -0.0807302 0)
(0.660521 -0.074134 0)
(0.656628 -0.0678487 0)
(0.653381 -0.0619535 0)
(0.650515 -0.0562141 0)
(0.648453 -0.0514331 0)
(0.64574 -0.0450062 0)
(0.817496 -0.119476 0)
(0.802692 -0.123469 0)
(0.786259 -0.125364 0)
(0.770536 -0.125338 0)
(0.756046 -0.123738 0)
(0.74259 -0.120833 0)
(0.730092 -0.116835 0)
(0.718627 -0.111959 0)
(0.708259 -0.106429 0)
(0.698981 -0.100461 0)
(0.690747 -0.0942503 0)
(0.683489 -0.0879619 0)
(0.677132 -0.0817257 0)
(0.671586 -0.0756332 0)
(0.666776 -0.0697489 0)
(0.66259 -0.0640894 0)
(0.659033 -0.0587397 0)
(0.65581 -0.0534783 0)
(0.653466 -0.0490829 0)
(0.650263 -0.0430794 0)
(0.813677 -0.10432 0)
(0.800541 -0.108396 0)
(0.785907 -0.110648 0)
(0.771725 -0.111196 0)
(0.758476 -0.11033 0)
(0.746035 -0.108278 0)
(0.734362 -0.105216 0)
(0.72354 -0.101326 0)
(0.713636 -0.0967959 0)
(0.704666 -0.0918128 0)
(0.696602 -0.0865461 0)
(0.689401 -0.0811423 0)
(0.683006 -0.0757197 0)
(0.677347 -0.0703646 0)
(0.672368 -0.0651421 0)
(0.667967 -0.0600725 0)
(0.664176 -0.0552437 0)
(0.660671 -0.0504479 0)
(0.658105 -0.0464308 0)
(0.654502 -0.040861 0)
(0.809546 -0.0910202 0)
(0.797862 -0.095008 0)
(0.784843 -0.0974301 0)
(0.772075 -0.0983608 0)
(0.75999 -0.0980368 0)
(0.748519 -0.0966468 0)
(0.737655 -0.0943382 0)
(0.72748 -0.0912602 0)
(0.718067 -0.0875724 0)
(0.709443 -0.083433 0)
(0.7016 -0.0789884 0)
(0.694511 -0.0743668 0)
(0.688139 -0.0696744 0)
(0.68243 -0.0649911 0)
(0.677345 -0.06038 0)
(0.672792 -0.0558632 0)
(0.668825 -0.0515291 0)
(0.665101 -0.047184 0)
(0.662363 -0.0435351 0)
(0.658436 -0.0384043 0)
(0.805469 -0.0793067 0)
(0.79502 -0.0830929 0)
(0.783408 -0.0855475 0)
(0.771898 -0.0867109 0)
(0.760867 -0.0867728 0)
(0.750292 -0.0858877 0)
(0.740187 -0.0841759 0)
(0.730635 -0.0817606 0)
(0.72171 -0.0787748 0)
(0.713446 -0.075352 0)
(0.70585 -0.0716177 0)
(0.698909 -0.0676829 0)
(0.692603 -0.0636418 0)
(0.686891 -0.0595668 0)
(0.681749 -0.0555175 0)
(0.677094 -0.0515165 0)
(0.673003 -0.0476502 0)
(0.669112 -0.043739 0)
(0.666242 -0.0404467 0)
(0.662056 -0.035756 0)
(0.80163 -0.068923 0)
(0.792217 -0.0724385 0)
(0.781811 -0.0748287 0)
(0.771398 -0.0761108 0)
(0.761302 -0.0764352 0)
(0.751534 -0.0759263 0)
(0.742123 -0.0746817 0)
(0.733152 -0.072802 0)
(0.724693 -0.0703974 0)
(0.716786 -0.0675801 0)
(0.709447 -0.0644565 0)
(0.702676 -0.0611223 0)
(0.696464 -0.0576597 0)
(0.690784 -0.0541337 0)
(0.685624 -0.050599 0)
(0.680908 -0.0470776 0)
(0.676731 -0.043652 0)
(0.672716 -0.0401569 0)
(0.669747 -0.0372086 0)
(0.665358 -0.0329561 0)
(0.798112 -0.0596458 0)
(0.789564 -0.0628515 0)
(0.78018 -0.0651107 0)
(0.770712 -0.0664265 0)
(0.761433 -0.0669166 0)
(0.752378 -0.0666805 0)
(0.743592 -0.0657964 0)
(0.735151 -0.0643462 0)
(0.727125 -0.0624206 0)
(0.719558 -0.0601131 0)
(0.712475 -0.0575135 0)
(0.705884 -0.0547034 0)
(0.699784 -0.051754 0)
(0.694159 -0.0487224 0)
(0.689009 -0.0456585 0)
(0.684263 -0.0425821 0)
(0.680033 -0.0395709 0)
(0.675929 -0.0364741 0)
(0.672889 -0.0338564 0)
(0.668342 -0.0300377 0)
(0.794944 -0.0512873 0)
(0.787117 -0.0541625 0)
(0.778594 -0.0562457 0)
(0.769932 -0.0575318 0)
(0.761358 -0.0581126 0)
(0.752927 -0.0580668 0)
(0.744692 -0.0574567 0)
(0.736726 -0.0563484 0)
(0.729095 -0.0548161 0)
(0.721846 -0.0529373 0)
(0.715008 -0.0507871 0)
(0.708595 -0.0484345 0)
(0.702617 -0.0459405 0)
(0.697063 -0.0433546 0)
(0.691943 -0.0407211 0)
(0.68719 -0.0380579 0)
(0.682931 -0.0354361 0)
(0.678766 -0.0327196 0)
(0.675676 -0.0304194 0)
(0.671011 -0.0270287 0)
(0.792136 -0.0436896 0)
(0.784907 -0.0462249 0)
(0.777104 -0.0481018 0)
(0.769122 -0.0493115 0)
(0.76115 -0.0499251 0)
(0.753258 -0.0500043 0)
(0.745503 -0.0495984 0)
(0.737956 -0.0487602 0)
(0.730678 -0.0475504 0)
(0.723718 -0.0460323 0)
(0.717109 -0.0442683 0)
(0.710869 -0.042316 0)
(0.705013 -0.0402271 0)
(0.699538 -0.0380438 0)
(0.69446 -0.0358047 0)
(0.689717 -0.0335254 0)
(0.685447 -0.0312697 0)
(0.681244 -0.0289169 0)
(0.678121 -0.0269212 0)
(0.673367 -0.0239517 0)
(0.789685 -0.036719 0)
(0.78295 -0.0389115 0)
(0.775744 -0.0405623 0)
(0.768329 -0.0416611 0)
(0.760866 -0.042263 0)
(0.753431 -0.042416 0)
(0.746089 -0.0421584 0)
(0.738905 -0.0415326 0)
(0.731938 -0.040587 0)
(0.725236 -0.0393733 0)
(0.718833 -0.0379425 0)
(0.712753 -0.0363422 0)
(0.707016 -0.0346152 0)
(0.701621 -0.0327971 0)
(0.696593 -0.0309206 0)
(0.691871 -0.0289991 0)
(0.687602 -0.0270886 0)
(0.683376 -0.0250836 0)
(0.680235 -0.0233805 0)
(0.675416 -0.020825 0)
(0.787587 -0.0302606 0)
(0.781254 -0.0321112 0)
(0.774537 -0.033523 0)
(0.76759 -0.034486 0)
(0.760548 -0.0350424 0)
(0.753496 -0.0352292 0)
(0.746502 -0.035076 0)
(0.739626 -0.034616 0)
(0.732926 -0.0338877 0)
(0.726447 -0.0329325 0)
(0.720227 -0.0317911 0)
(0.714293 -0.0305023 0)
(0.708665 -0.0291009 0)
(0.703348 -0.0276159 0)
(0.69837 -0.0260747 0)
(0.693674 -0.0244881 0)
(0.689416 -0.0229041 0)
(0.685178 -0.0212328 0)
(0.682026 -0.0198113 0)
(0.677163 -0.0176628 0)
(0.785834 -0.0242139 0)
(0.779824 -0.0257258 0)
(0.773498 -0.0268906 0)
(0.766928 -0.0276999 0)
(0.760228 -0.0281856 0)
(0.75349 -0.0283757 0)
(0.746781 -0.0282927 0)
(0.740162 -0.0279622 0)
(0.733685 -0.0274139 0)
(0.727395 -0.02668 0)
(0.721332 -0.0257927 0)
(0.715523 -0.0247822 0)
(0.709991 -0.0236761 0)
(0.704745 -0.0224975 0)
(0.699815 -0.0212682 0)
(0.695148 -0.0199972 0)
(0.690903 -0.0187235 0)
(0.686662 -0.0173736 0)
(0.683505 -0.0162241 0)
(0.678611 -0.0144761 0)
(0.784419 -0.0184904 0)
(0.778659 -0.0196679 0)
(0.772639 -0.0205812 0)
(0.766364 -0.0212241 0)
(0.759933 -0.0216206 0)
(0.753443 -0.0217912 0)
(0.746962 -0.0217526 0)
(0.740548 -0.0215234 0)
(0.73425 -0.0211261 0)
(0.728115 -0.0205846 0)
(0.722179 -0.019923 0)
(0.716474 -0.0191643 0)
(0.711024 -0.0183291 0)
(0.705838 -0.0174351 0)
(0.70095 -0.0164988 0)
(0.696309 -0.0155271 0)
(0.692078 -0.0145504 0)
(0.687838 -0.0135118 0)
(0.68468 -0.012626 0)
(0.679766 -0.0112731 0)
(0.783334 -0.0130196 0)
(0.777763 -0.0138651 0)
(0.771971 -0.0145225 0)
(0.765917 -0.014989 0)
(0.759687 -0.0152821 0)
(0.753383 -0.015416 0)
(0.747073 -0.0154022 0)
(0.740814 -0.0152533 0)
(0.734652 -0.0149848 0)
(0.728633 -0.0146136 0)
(0.722795 -0.0141562 0)
(0.717169 -0.0136287 0)
(0.711782 -0.0130456 0)
(0.706643 -0.0124191 0)
(0.701789 -0.0117609 0)
(0.69717 -0.0110761 0)
(0.692951 -0.0103856 0)
(0.688713 -0.00965033 0)
(0.685556 -0.00902117 0)
(0.680629 -0.00806016 0)
(0.782586 -0.00772023 0)
(0.77715 -0.00824024 0)
(0.771516 -0.00864157 0)
(0.76561 -0.00892573 0)
(0.759515 -0.00910557 0)
(0.753334 -0.00919066 0)
(0.747139 -0.00918772 0)
(0.740982 -0.00910415 0)
(0.734911 -0.00894904 0)
(0.72897 -0.0087323 0)
(0.723198 -0.00846385 0)
(0.717626 -0.00815307 0)
(0.712281 -0.00780848 0)
(0.707175 -0.00743745 0)
(0.702344 -0.00704664 0)
(0.697739 -0.00663969 0)
(0.693529 -0.0062276 0)
(0.689295 -0.00579066 0)
(0.686136 -0.00541123 0)
(0.681204 -0.00484267 0)
(0.782196 -0.00248505 0)
(0.776843 -0.00269744 0)
(0.771294 -0.00285116 0)
(0.765464 -0.00295576 0)
(0.759435 -0.00302074 0)
(0.753313 -0.00305198 0)
(0.747173 -0.00305289 0)
(0.741067 -0.00302645 0)
(0.73504 -0.00297591 0)
(0.729138 -0.00290474 0)
(0.723398 -0.00281626 0)
(0.717853 -0.00271363 0)
(0.712529 -0.00259964 0)
(0.707439 -0.00247679 0)
(0.70262 -0.00234717 0)
(0.698024 -0.00221228 0)
(0.693817 -0.00207502 0)
(0.689587 -0.00193067 0)
(0.686422 -0.00180254 0)
(0.681492 -0.00161669 0)
(0.925328 0.0460328 2.56492e-21)
(0.932587 0.0197828 0)
(0.936124 -0.00798873 -5.25393e-22)
(0.935536 -0.0370664 -1.60881e-20)
(0.930579 -0.0672117 2.86837e-20)
(0.92051 -0.0981514 0)
(0.9054 -0.129378 2.48404e-20)
(0.882421 -0.160859 0)
(0.857207 -0.189474 2.28266e-20)
(0.810893 -0.221744 -3.60451e-22)
(0.908834 0.0403626 -2.78811e-21)
(0.915434 0.0175752 6.05285e-22)
(0.918826 -0.00646758 -6.06419e-22)
(0.918702 -0.0315682 -9.28978e-22)
(0.915291 -0.0575306 -1.53957e-20)
(0.907466 -0.0842625 -9.6248e-22)
(0.897066 -0.11103 0)
(0.878596 -0.139297 -2.70167e-20)
(0.863606 -0.162924 0)
(0.82564 -0.197546 -2.43937e-20)
(0.894474 0.035018 5.68775e-21)
(0.900175 0.0150908 0)
(0.903201 -0.00582639 -5.86855e-22)
(0.90319 -0.0275775 -2.25113e-22)
(0.90078 -0.0499152 1.63783e-20)
(0.894354 -0.0730626 0)
(0.887093 -0.0956818 2.92803e-20)
(0.871907 -0.121037 2.7788e-20)
(0.861917 -0.140154 0)
(0.833027 -0.17344 2.41431e-20)
(0.882167 0.0304363 -2.54581e-21)
(0.887011 0.0130045 1.07198e-20)
(0.889601 -0.00518786 0)
(0.889516 -0.0240838 1.85197e-20)
(0.887656 -0.04334 1.06275e-21)
(0.882123 -0.0635472 -2.05889e-21)
(0.876562 -0.0827624 -2.81751e-20)
(0.863988 -0.10547 -9.36194e-22)
(0.856014 -0.121306 -2.80854e-20)
(0.834642 -0.151151 0)
(0.871587 0.0265272 0)
(0.875701 0.0112523 -1.04439e-20)
(0.877854 -0.00461891 -1.19622e-20)
(0.877609 -0.0211127 1.81863e-21)
(0.875955 -0.0377837 -1.18413e-21)
(0.871043 -0.0554842 -1.03493e-21)
(0.866272 -0.0719282 -3.06506e-20)
(0.855883 -0.0919572 -1.88619e-21)
(0.848694 -0.10546 -2.18761e-22)
(0.83259 -0.131279 2.73202e-20)
(0.862397 0.0231452 3.12289e-21)
(0.865914 0.00974167 7.00478e-22)
(0.867674 -0.00414109 -1.61176e-21)
(0.867273 -0.0185816 6.53882e-22)
(0.86564 -0.0330738 -1.91641e-20)
(0.861214 -0.048563 0)
(0.856775 -0.0627565 3.35905e-20)
(0.848082 -0.0801776 -1.00338e-21)
(0.841239 -0.0919959 5.86126e-20)
(0.828527 -0.113962 -5.50742e-20)
(0.854351 0.0201915 -3.13827e-21)
(0.857384 0.00843371 -5.9815e-21)
(0.858811 -0.00371744 1.09883e-20)
(0.858292 -0.0163637 -1.97472e-20)
(0.856611 -0.0290003 -1.73482e-21)
(0.852574 -0.042524 -1.84214e-20)
(0.848271 -0.0548862 1.03337e-21)
(0.840791 -0.0699213 -2.00023e-21)
(0.834201 -0.0804192 -2.8626e-20)
(0.823633 -0.0989781 2.77491e-20)
(0.847281 0.0175943 0)
(0.849918 0.00729719 1.28457e-20)
(0.851065 -0.00333024 -1.42158e-21)
(0.850461 -0.0143898 1.10135e-20)
(0.848718 -0.025427 -4.2179e-22)
(0.844986 -0.0372066 3.61323e-20)
(0.840764 -0.0480363 -1.6532e-20)
(0.834129 -0.0609618 0)
(0.827796 -0.0703235 0)
(0.818609 -0.085982 0)
(0.841068 0.0152975 0)
(0.843374 0.0063034 -1.15935e-20)
(0.844285 -0.00297394 -7.47046e-22)
(0.843614 -0.0126216 1.07709e-20)
(0.841817 -0.0222595 2.0156e-20)
(0.83832 -0.0324924 -1.99971e-20)
(0.834179 -0.0419925 1.98471e-20)
(0.828136 -0.053085 -1.07279e-21)
(0.822062 -0.061418 0)
(0.813803 -0.0746413 1.4743e-20)
(0.835622 0.0132561 4.04893e-22)
(0.837645 0.00542938 6.59935e-21)
(0.838356 -0.00264313 1.0397e-20)
(0.837627 -0.0110281 -6.31166e-22)
(0.83579 -0.019424 1.33493e-21)
(0.832469 -0.0282844 -2.07209e-20)
(0.828416 -0.0366001 2.0544e-20)
(0.822801 -0.0461082 -1.08941e-21)
(0.816966 -0.0534895 0)
(0.809372 -0.064665 -2.9494e-20)
(0.830866 0.0114316 0)
(0.832648 0.00465678 6.40447e-21)
(0.83319 -0.00233203 1.33403e-22)
(0.832406 -0.00958202 0)
(0.830539 -0.0168626 0)
(0.82735 -0.0245015 1.83438e-20)
(0.823386 -0.0317448 -1.70541e-20)
(0.818089 -0.0398774 -1.04227e-21)
(0.812462 -0.0463704 5.42534e-22)
(0.805371 -0.0558087 1.52293e-20)
(0.826741 0.00979695 0)
(0.828316 0.00397326 -1.21373e-20)
(0.828714 -0.00203484 -1.36229e-20)
(0.827879 -0.0082597 2.12141e-21)
(0.825989 -0.0145292 -1.37432e-21)
(0.822898 -0.0210748 -1.2132e-21)
(0.819014 -0.0273372 2.32864e-21)
(0.813961 -0.0342638 1.52804e-20)
(0.808509 -0.0399251 1.52731e-21)
(0.801809 -0.0478731 -4.81715e-22)
(0.823195 0.00832484 0)
(0.824589 0.0033635 6.51925e-21)
(0.824869 -0.00174896 -7.4927e-22)
(0.823986 -0.00704126 7.4305e-22)
(0.822077 -0.0123863 0)
(0.81906 -0.0179451 0)
(0.815245 -0.0233039 0)
(0.81038 -0.0291603 -1.73712e-20)
(0.805069 -0.0340414 1.63285e-20)
(0.798677 -0.0406945 0)
(0.820154 0.00696343 0)
(0.821421 0.00281209 4.12404e-21)
(0.821605 -0.00147305 5.45047e-21)
(0.820679 -0.00590931 7.28929e-21)
(0.818755 -0.0104016 -1.4052e-21)
(0.815791 -0.0150614 8.99899e-21)
(0.812033 -0.0195823 -8.30783e-21)
(0.807314 -0.0244772 0)
(0.802113 -0.0286237 6.67603e-22)
(0.795964 -0.0341365 -1.56357e-20)
(0.817648 0.00570577 -8.85671e-22)
(0.818787 0.00231314 -3.33417e-21)
(0.818884 -0.00120415 -7.04242e-21)
(0.81792 -0.00484782 -5.12548e-21)
(0.815982 -0.00854735 0)
(0.813058 -0.0123793 -1.14881e-20)
(0.809343 -0.0161178 1.18947e-20)
(0.804735 -0.0201375 -1.13689e-21)
(0.799618 -0.0235891 -8.06492e-21)
(0.793655 -0.0280834 2.25802e-20)
(0.815608 0.00455363 8.90227e-22)
(0.816643 0.00185854 -2.5583e-21)
(0.816669 -0.000940387 2.36803e-21)
(0.815672 -0.00384302 -5.97118e-21)
(0.813724 -0.00679888 0)
(0.810828 -0.00986009 0)
(0.807146 -0.0128619 1.16804e-21)
(0.802619 -0.0160741 -1.11238e-20)
(0.797563 -0.018864 -7.10041e-21)
(0.791739 -0.0224346 -7.50076e-21)
(0.81401 0.00347415 0)
(0.814962 0.00143769 4.22571e-21)
(0.814931 -0.00068199 -1.59064e-21)
(0.813908 -0.00288493 5.2971e-21)
(0.81195 -0.00513626 1.43821e-21)
(0.809074 -0.00747093 -1.26706e-21)
(0.805415 -0.0097721 2.41076e-21)
(0.800946 -0.0122282 7.72156e-21)
(0.79593 -0.0143829 0)
(0.790202 -0.0171017 0)
(0.812829 0.00245361 0)
(0.813718 0.00104347 1.71573e-21)
(0.813644 -0.00043022 -3.22133e-21)
(0.812601 -0.0019678 0)
(0.810637 -0.00354681 -2.82053e-21)
(0.807774 -0.00518986 -1.2727e-21)
(0.804129 -0.00681889 -3.59851e-21)
(0.799696 -0.00855776 -1.08248e-21)
(0.794701 -0.0100973 5.53196e-22)
(0.789032 -0.0120171 4.80722e-22)
(0.812041 0.0014924 0)
(0.812885 0.000686246 -1.72401e-21)
(0.812783 -0.000160358 -1.60383e-21)
(0.811728 -0.00105213 2.26067e-21)
(0.809761 -0.00197782 1.37229e-21)
(0.806907 -0.00295124 1.31226e-21)
(0.80327 -0.00392743 6.00651e-21)
(0.798856 -0.00497844 -4.4493e-21)
(0.793867 -0.00592253 1.04643e-21)
(0.788225 -0.00709332 0)
(0.811624 0.000501044 0)
(0.812452 0.000312896 8.51845e-22)
(0.812341 0.000104453 -8.22653e-22)
(0.811282 -0.000131522 7.87899e-22)
(0.809314 -0.000394477 0)
(0.806464 -0.00069166 -1.31894e-21)
(0.802826 -0.0010104 1.18375e-21)
(0.798415 -0.00137779 1.08044e-21)
(0.793419 -0.00173436 0)
(0.787789 -0.00219854 0)
(0.682258 0.216117 0)
(0.675237 0.238334 -4.63094e-20)
(0.671895 0.26497 0)
(0.669089 0.297134 -1.52202e-19)
(0.665335 0.334882 5.68644e-20)
(0.659061 0.377855 1.32913e-21)
(0.644709 0.421729 5.2507e-20)
(0.605426 0.450453 -4.47699e-21)
(0.502021 0.421112 0)
(0.265199 0.235727 5.87739e-20)
(0.71314 0.216036 8.62798e-20)
(0.710677 0.240513 4.63082e-20)
(0.712774 0.266568 -4.49306e-20)
(0.714826 0.298379 5.10441e-20)
(0.716074 0.335771 -4.63204e-20)
(0.71505 0.377804 4.63132e-21)