/*--------------------------------*- C++ -*----------------------------------*\
| =========                 |                                                 |
| \\      /  F ield         | OpenFOAM: The Open Source CFD Toolbox           |
|  \\    /   O peration     | Version:  4.1                                   |
|   \\  /    A nd           | Web:      www.OpenFOAM.org                      |
|    \\/     M anipulation  |                                                 |
\*---------------------------------------------------------------------------*/
FoamFile
{
    version     2.0;
    format      ascii;
    class       volVectorField;
    location    "12.6";
    object      U;
}
// * * * * * * * * * * * * * * * * * * * * * * * * * * * * * * * * * * * * * //

dimensions      [0 1 -1 0 0 0 0];

internalField   nonuniform List<vector> 
2000
(
(-0.0248391 0.0219162 -2.25453e-21)
(0.00372883 0.0208281 0)
(0.0982003 0.00845097 -8.97323e-21)
(0.24413 -0.0056447 -5.33921e-21)
(0.426165 -0.0154388 1.00678e-20)
(0.62513 -0.018938 1.71282e-20)
(0.823586 -0.0158686 -5.41816e-21)
(1.00342 -0.0105209 0)
(1.17681 0.00195776 5.93442e-21)
(1.2848 0.0103617 0)
(-0.0186251 0.0156893 1.2541e-21)
(0.0442587 0.00352241 -2.20043e-21)
(0.190693 -0.0115494 5.71747e-21)
(0.394372 -0.0218553 1.19129e-20)
(0.625389 -0.0235689 -7.0441e-22)
(0.853944 -0.0176255 -5.97311e-21)
(1.05888 -0.00687263 4.90148e-21)
(1.2296 0.00406942 5.7013e-21)
(1.36961 0.0173998 -5.9341e-21)
(1.45483 0.0186108 -1.2331e-20)
(-0.00592583 0.00774644 5.63112e-23)
(0.105552 -0.014906 -5.27452e-23)
(0.315473 -0.0279184 -2.76571e-21)
(0.576498 -0.0289185 -1.16521e-21)
(0.840486 -0.0194192 -4.34108e-21)
(1.07272 -0.00444183 -4.91136e-21)
(1.25822 0.011063 -5.36383e-21)
(1.39695 0.0234487 -5.70114e-21)
(1.4977 0.0329327 -6.16343e-21)
(1.56894 0.0342509 6.46853e-21)
(0.0154159 -0.00139819 -5.99512e-22)
(0.190686 -0.0314567 -1.22244e-21)
(0.469424 -0.0357808 0)
(0.774259 -0.0232264 -3.8537e-21)
(1.04476 -0.00299635 2.40076e-21)
(1.25438 0.0171584 0)
(1.40343 0.032838 0)
(1.50505 0.042362 0)
(1.57767 0.0481184 6.16367e-21)
(1.62711 0.0466119 -1.35498e-20)
(0.0473346 -0.0105013 6.94572e-21)
(0.299891 -0.041704 -8.59778e-23)
(0.64179 -0.0308512 1.18158e-21)
(0.965713 -0.00427635 -1.20796e-21)
(1.21621 0.0225354 -1.03504e-21)
(1.38767 0.042777 -1.92721e-21)
(1.49836 0.054944 0)
(1.57157 0.0604725 -3.17766e-21)
(1.62537 0.0621038 1.80572e-20)
(1.67106 0.0583839 -2.4642e-20)
(0.0909486 -0.0176839 -1.34547e-20)
(0.428795 -0.040943 1.46095e-21)
(0.816083 -0.0113642 -2.18263e-21)
(1.13211 0.0255856 9.5866e-22)
(1.34589 0.0534996 3.98314e-21)
(1.47697 0.069931 -8.40485e-22)
(1.55695 0.0771462 0)
(1.61171 0.078458 3.17789e-21)
(1.65761 0.076627 -3.58814e-21)
(1.70141 0.0721045 -1.79421e-20)
(0.14613 -0.0205837 0)
(0.568187 -0.0257108 0)
(0.975996 0.0216228 -1.59206e-21)
(1.26393 0.0631988 1.48209e-21)
(1.43586 0.0876102 1.58764e-21)
(1.53222 0.0981118 -1.49057e-21)
(1.59068 0.0999475 -7.15638e-21)
(1.63535 0.0972816 6.76441e-21)
(1.6778 0.0925764 9.31707e-21)
(1.72215 0.0870399 -4.43941e-21)
(0.21087 -0.0167799 4.06416e-21)
(0.705969 0.0049287 0)
(1.11051 0.0654971 -3.8563e-22)
(1.35988 0.105992 1.42421e-21)
(1.49244 0.123743 1.05408e-21)
(1.56205 0.127291 0)
(1.60687 0.123758 0)
(1.64655 0.117302 0)
(1.68841 0.110007 1.09629e-20)
(1.73364 0.103446 -1.04208e-20)
(0.281228 -0.00444965 -2.23454e-21)
(0.830639 0.0493877 -2.98692e-22)
(1.21461 0.117301 -1.45452e-21)
(1.42277 0.152064 -6.04417e-23)
(1.52194 0.161184 1.03876e-23)
(1.57249 0.1574 -1.33556e-21)
(1.60936 0.148621 0)
(1.64714 0.138524 1.55066e-21)
(1.68928 0.128861 8.23621e-21)
(1.73523 0.12065 -6.21384e-21)
(0.351892 0.0171711 0)
(0.933921 0.104523 -1.41497e-21)
(1.28731 0.17415 0)
(1.45662 0.199902 -1.90445e-22)
(1.52939 0.199305 -1.62041e-22)
(1.56718 0.188141 9.62185e-22)
(1.59991 0.174239 0)
(1.63733 0.160565 -1.55081e-21)
(1.68013 0.148509 -1.69864e-21)
(1.72679 0.138085 -2.03819e-21)
(-0.00452314 0.00446055 0)
(-0.0189007 0.00868809 1.17443e-21)
(-0.0399867 0.0103403 0)
(-0.0607634 0.0107059 1.4685e-21)
(-0.0795864 0.0104228 4.45933e-22)
(-0.0961696 0.00987314 -8.31464e-22)
(-0.110603 0.00930618 7.83031e-22)
(-0.123208 0.00888666 -7.21112e-22)
(-0.134475 0.0087439 -8.79325e-24)
(-0.1452 0.00900462 -6.30028e-22)
(-0.00549333 0.0129275 3.78537e-21)
(-0.0199982 0.0252321 -2.34547e-21)
(-0.0398071 0.030061 2.08612e-21)
(-0.0586023 0.0310784 -9.74268e-22)
(-0.0749664 0.0301417 -4.45037e-21)
(-0.0886666 0.0283734 1.66846e-21)
(-0.0998107 0.0265162 0)
(-0.108693 0.0250854 7.18698e-22)
(-0.115694 0.0244903 6.69924e-22)
(-0.121874 0.0251316 0)
(-0.00733158 0.0201261 -2.52583e-21)
(-0.0221527 0.0394446 0)
(-0.0396265 0.0470281 -6.19123e-21)
(-0.054741 0.0484484 7.60672e-21)
(-0.0664918 0.0466157 -1.76444e-21)
(-0.0747777 0.0433042 0)
(-0.0797576 0.0397116 0)
(-0.0817338 0.0367371 0)
(-0.0808511 0.0351509 -5.38228e-21)
(-0.0780559 0.0357649 5.11532e-21)
(-0.00984091 0.0255483 0)
(-0.0252354 0.0502518 4.33387e-21)
(-0.0396278 0.0598269 -8.00608e-21)
(-0.0496986 0.0612181 3.71584e-21)
(-0.0550384 0.0581439 -3.45139e-21)
(-0.0557766 0.0528699 9.71264e-21)
(-0.0521676 0.046926 2.40268e-24)
(-0.04464 0.0415325 -5.76625e-21)
(-0.0332428 0.0380361 -5.54048e-21)
(-0.0168951 0.038791 7.97421e-21)
(-0.0128142 0.0290857 -4.61562e-21)
(-0.0289685 0.0571136 8.22926e-21)
(-0.0396497 0.0675685 -8.99409e-23)
(-0.0433792 0.068311 4.8006e-23)
(-0.0404762 0.06362 -3.44469e-21)
(-0.0314038 0.0560635 9.57226e-21)
(-0.0165741 0.0473072 0)
(0.00349016 0.0386976 2.94421e-21)
(0.0290301 0.0322057 -2.87277e-21)
(0.0617398 0.0321068 1.07533e-20)
(-0.0160751 0.0309387 -1.52751e-22)
(-0.03282 0.0599613 -7.97979e-21)
(-0.0387918 0.069865 -3.77042e-21)
(-0.0343021 0.0691555 -3.31465e-21)
(-0.0204271 0.0624939 -3.35339e-21)
(0.00200132 0.0526367 -3.18962e-21)
(0.0323358 0.0412425 0)
(0.0696917 0.0294911 -2.94405e-21)
(0.11395 0.0192389 -9.13918e-21)
(0.172163 0.0173325 2.49617e-21)
(-0.0194605 0.0314417 2.39192e-23)
(-0.0358339 0.0589865 -3.65241e-21)
(-0.0350417 0.0667277 0)
(-0.0189701 0.0635984 7.10464e-21)
(0.0105986 0.054633 -6.40282e-21)
(0.0524321 0.0427938 0)
(0.105487 0.0298083 0)
(0.168121 0.0166768 0)
(0.236832 0.00347834 6.02024e-21)
(0.333487 0.000930899 1.13733e-20)
(-0.0227469 0.0308639 3.54334e-21)
(-0.0364512 0.0544833 -3.31915e-21)
(-0.024923 0.0583964 -6.33071e-21)
(0.00843919 0.0518907 3.11223e-22)
(0.0612342 0.0404637 -6.24186e-21)
(0.131358 0.0273127 -6.18306e-21)
(0.21652 0.0143876 -6.14001e-21)
(0.313699 0.00310582 -6.1279e-21)
(0.411973 -0.0101983 -6.01956e-21)
(0.556931 -0.00911773 6.43179e-21)
(-0.0254168 0.0292182 8.48376e-21)
(-0.0323842 0.0466163 3.38291e-21)
(-0.00350099 0.0453036 1.25608e-20)
(0.0558689 0.034981 6.29381e-21)
(0.142093 0.0216139 2.63127e-22)
(0.250732 0.00860005 6.46708e-21)
(0.376327 -0.002005 -5.87133e-21)
(0.512199 -0.00846676 6.12717e-21)
(0.642767 -0.0171749 -6.0882e-21)
(0.82382 -0.00788659 1.23733e-20)
(-0.0265371 0.0263399 -5.37663e-21)
(-0.0203352 0.0353879 0)
(0.0353497 0.0282103 -5.74176e-21)
(0.132048 0.0147688 5.01667e-23)
(0.262602 0.00137818 4.28385e-22)
(0.417167 -0.00872141 -6.26804e-21)
(0.584883 -0.0137889 1.76465e-20)
(0.751892 -0.0143313 0)
(0.91358 -0.0130156 6.08737e-21)
(1.08587 0.00325594 0)
(-0.156122 0.00956163 0)
(-0.167881 0.00950993 5.62814e-22)
(-0.179429 0.00924204 -1.10877e-21)
(-0.190661 0.00892181 4.78938e-22)
(-0.201577 0.00856564 0)
(-0.212127 0.00817068 -4.70938e-22)
(-0.222253 0.0077352 4.73272e-22)
(-0.231894 0.0072592 0)
(-0.240994 0.00674552 0)
(-0.249496 0.00620039 -4.58469e-23)
(-0.257353 0.00563375 0)
(-0.264529 0.00505931 0)
(-0.271013 0.00449455 0)
(-0.276811 0.00396035 0)
(-0.281954 0.00347945 4.30583e-23)
(-0.286492 0.00307403 -4.32813e-23)
(-0.29057 0.00276579 0)
(-0.294525 0.00257772 7.63758e-24)
(-0.298542 0.0025123 -7.67775e-24)
(-0.301434 0.00250114 0)
(-0.129562 0.0268544 0)
(-0.139655 0.0267959 -1.44194e-22)
(-0.149528 0.0261942 0)
(-0.159206 0.0254506 -2.02436e-21)
(-0.168814 0.0245922 1.97156e-21)
(-0.178302 0.0236124 -1.22767e-22)
(-0.187605 0.0225055 8.87687e-22)
(-0.196661 0.0212685 -1.8273e-21)
(-0.205406 0.0199065 1.49356e-21)
(-0.213776 0.0184337 -8.13401e-22)
(-0.221708 0.0168752 -6.27965e-22)
(-0.229145 0.0152673 1.11379e-21)
(-0.236045 0.0136582 -5.60354e-22)
(-0.242382 0.0121076 -2.6407e-22)
(-0.248145 0.0106838 2.08284e-22)
(-0.253337 0.00945737 -3.85642e-23)
(-0.258043 0.00849811 -2.946e-23)
(-0.262581 0.00788074 -3.02598e-23)
(-0.267231 0.00764146 3.04063e-23)
(-0.270749 0.00762289 -2.37132e-24)
(-0.0799747 0.0391459 1.48994e-22)
(-0.0869963 0.0390409 1.44446e-22)
(-0.0935812 0.0386046 1.42745e-22)
(-0.100139 0.037981 0)
(-0.106998 0.037159 2.28679e-21)
(-0.114127 0.0361357 -1.78541e-21)
(-0.121462 0.0348948 0)
(-0.128949 0.0334245 2.19167e-22)
(-0.13653 0.0317237 1.00268e-22)
(-0.144139 0.0298035 -1.22442e-21)
(-0.151707 0.0276901 1.468e-22)
(-0.159158 0.0254275 1.42532e-21)
(-0.166417 0.0230795 6.69879e-23)
(-0.173413 0.0207311 5.64109e-23)
(-0.180075 0.0184882 4.82365e-23)
(-0.186327 0.0164707 -9.69406e-23)
(-0.192144 0.0148036 9.62371e-23)
(-0.197757 0.0136335 9.88174e-23)
(-0.203564 0.0131276 1.66989e-23)
(-0.208293 0.0131851 -1.9954e-24)
(-0.0114295 0.0427832 4.62305e-21)
(-0.0151841 0.0436571 -9.55918e-23)
(-0.017108 0.0439515 -3.0579e-22)
(-0.0194167 0.0439111 -4.55805e-21)
(-0.0223189 0.0437281 -4.05782e-22)
(-0.0258225 0.0433241 -1.25441e-22)
(-0.0298985 0.0426326 3.47024e-21)
(-0.0345143 0.04163 -2.10808e-21)
(-0.0396418 0.0403058 -1.73519e-21)
(-0.0452475 0.0386561 1.55424e-21)
(-0.0512863 0.0366911 -1.51418e-22)
(-0.0576994 0.0344415 -1.54279e-21)
(-0.0644158 0.0319616 -6.64309e-23)
(-0.0713516 0.0293329 -5.44315e-22)
(-0.0784078 0.0266691 3.78409e-22)
(-0.0854573 0.0241143 2.74367e-22)
(-0.0923573 0.0218325 -2.43335e-22)
(-0.0991369 0.0200391 0)
(-0.106244 0.0191112 -3.25928e-23)
(-0.112834 0.0192778 -2.02765e-24)
(0.0755762 0.0374799 -1.04832e-20)
(0.076742 0.0402707 4.54793e-21)
(0.0776946 0.0412429 -4.86751e-21)
(0.0794535 0.0420029 0)
(0.0807901 0.0428209 2.73807e-22)
(0.0813212 0.0434714 4.14342e-21)
(0.0811029 0.0438107 -6.21451e-24)
(0.0801801 0.0438078 -2.71987e-22)
(0.0785355 0.0434529 -3.63787e-21)
(0.0761412 0.0427272 -1.94945e-22)
(0.0729839 0.0416183 0)
(0.0690662 0.0401324 1.57081e-22)
(0.0644052 0.0382973 0)
(0.0590366 0.0361656 1.17973e-22)
(0.0530191 0.03382 0)
(0.0464431 0.0313797 0)
(0.0394658 0.0289949 -6.0165e-23)
(0.0322877 0.026853 6.55512e-23)
(0.0246385 0.0252645 -5.68342e-23)
(0.015982 0.0247442 1.32377e-23)
(0.192085 0.0261513 0)
(0.195824 0.0304274 3.13418e-22)
(0.197662 0.0321429 9.95055e-21)
(0.201394 0.0336048 -9.63521e-21)
(0.205435 0.0353609 3.03383e-22)
(0.208794 0.0370516 0)
(0.211494 0.0384433 4.135e-21)
(0.213649 0.03952 -7.73739e-21)
(0.215217 0.0402927 4.10289e-21)
(0.216096 0.0407362 2.22318e-22)
(0.216206 0.0408196 2.02184e-22)
(0.215485 0.0405296 1.81208e-22)
(0.213879 0.0398707 0)
(0.211346 0.038866 -8.21214e-22)
(0.207865 0.0375587 1.86267e-21)
(0.203436 0.0360227 -7.88267e-22)
(0.198123 0.0343627 7.16223e-23)
(0.192041 0.0327103 4.99853e-23)
(0.185035 0.0311254 -1.55882e-23)
(0.176101 0.030092 1.57167e-23)
(0.354896 0.0128465 -1.17583e-20)
(0.358039 0.0186035 0)
(0.357318 0.0204988 3.33384e-22)
(0.359629 0.0223108 -6.45738e-22)
(0.363464 0.0247347 -6.22745e-22)
(0.367073 0.0270968 -3.05767e-22)
(0.370344 0.0291328 -2.91342e-22)
(0.373484 0.0309234 3.8651e-21)
(0.376442 0.032521 -4.61112e-21)
(0.379051 0.0338946 -3.95909e-21)
(0.381178 0.0350024 3.29366e-21)
(0.382719 0.0358232 -3.74329e-22)
(0.383572 0.036349 1.22939e-21)
(0.383638 0.0365854 -3.13482e-22)
(0.382832 0.0365475 -1.28644e-21)
(0.381072 0.0362811 -1.03284e-22)
(0.378343 0.0358373 1.03897e-22)
(0.374548 0.0353427 -1.3663e-22)
(0.370008 0.0347391 -1.98378e-22)
(0.362195 0.0345167 -9.29896e-24)
(0.573081 0.00448668 0)
(0.57266 0.0101825 1.08499e-20)
(0.56739 0.0109558 -1.1137e-20)
(0.566029 0.0126041 3.31386e-22)
(0.567096 0.0152104 6.53204e-22)
(0.568463 0.0176155 3.055e-22)
(0.569929 0.0196763 5.97191e-22)
(0.571714 0.0216432 0)
(0.573722 0.023584 2.55277e-22)
(0.575742 0.0254379 2.35435e-22)
(0.57763 0.0271508 2.31488e-22)
(0.579283 0.0286969 4.01838e-22)
(0.580601 0.0300578 0)
(0.581462 0.0312294 0)
(0.581793 0.0322058 1.24031e-22)
(0.581435 0.0330275 9.7589e-22)
(0.580468 0.0336974 -6.80879e-22)
(0.578412 0.0343724 6.30681e-23)
(0.576409 0.0349526 1.16463e-22)
(0.570745 0.0360208 -3.63719e-23)
(0.831363 0.00685716 -1.28837e-20)
(0.827675 0.00962247 0)
(0.820516 0.00788946 0)
(0.817143 0.00872522 1.11266e-20)
(0.815712 0.0107443 -6.38823e-22)
(0.81445 0.0124183 -2.09714e-20)
(0.813366 0.013894 9.92707e-21)
(0.812656 0.0155093 0)
(0.812193 0.0172684 0)
(0.81181 0.0190842 0)
(0.811447 0.0209056 -1.05901e-22)
(0.811059 0.0227045 -3.16881e-22)
(0.810626 0.0244446 -2.85694e-21)
(0.810039 0.0261111 2.75076e-21)
(0.809334 0.0276703 -1.03129e-21)
(0.808249 0.0291644 9.14175e-22)
(0.807153 0.0305377 0)
(0.805104 0.031998 -2.67271e-23)
(0.803982 0.033231 -3.69082e-23)
(0.79973 0.035396 0)
(1.09985 0.0103398 1.82476e-22)
(1.10092 0.00583052 1.15515e-20)
(1.09864 0.00381926 -1.14315e-20)
(1.09671 0.0056379 0)
(1.09376 0.00795541 -1.10815e-20)
(1.08966 0.00991767 2.16859e-20)
(1.08528 0.0119442 -1.0609e-20)
(1.081 0.0141289 0)
(1.07684 0.0163423 -4.53569e-21)
(1.0728 0.0185051 8.68298e-21)
(1.06892 0.0205941 -4.27171e-21)
(1.06522 0.0225999 1.09095e-22)
(1.06176 0.0244989 0)
(1.05843 0.0262982 2.71065e-21)
(1.05542 0.0279601 -3.70401e-21)
(1.05231 0.0295666 1.09246e-21)
(1.04981 0.0309874 6.7389e-22)
(1.0466 0.0325748 -4.73355e-22)
(1.045 0.0336796 -2.25509e-22)
(1.04107 0.0358901 0)
(1.39486 0.017807 0)
(1.37702 0.0144777 0)
(1.36384 0.0133502 0)
(1.35203 0.0135461 0)
(1.34099 0.01413 0)
(1.33097 0.0150444 0)
(1.32211 0.0162778 0)
(1.31429 0.0177191 0)
(1.30732 0.0192837 0)
(1.30101 0.0209243 0)
(1.29529 0.0226055 0)
(1.29003 0.0242981 0)
(1.28529 0.0259653 0)
(1.28082 0.027615 0)
(1.27692 0.0291831 0)
(1.27298 0.030782 0)
(1.26992 0.0321879 0)
(1.2662 0.0338711 0)
(1.26431 0.0349434 0)
(1.26032 0.0371545 0)
(1.53378 0.0274176 0)
(1.52641 0.0275002 0)
(1.5205 0.0268491 0)
(1.51464 0.025949 0)
(1.50849 0.0253574 0)
(1.50237 0.0252432 0)
(1.49659 0.0255406 0)
(1.49122 0.0261284 0)
(1.48626 0.0269306 0)
(1.48164 0.0278889 0)
(1.47736 0.028966 0)
(1.47334 0.0301175 0)
(1.46967 0.0313053 0)
(1.46614 0.0325202 0)
(1.46305 0.033697 0)
(1.45984 0.0349311 0)
(1.4574 0.0360017 0)
(1.45429 0.0373204 0)
(1.45278 0.0381124 0)
(1.44933 0.039718 0)
(1.63617 0.0317088 0)
(1.63266 0.0307991 0)
(1.62977 0.0301056 0)
(1.62731 0.0293101 0)
(1.62498 0.0287534 0)
(1.62272 0.0286147 0)
(1.62057 0.028861 0)
(1.61861 0.0293742 0)
(1.61682 0.0300813 0)
(1.61521 0.030918 0)
(1.61374 0.0318635 0)
(1.61241 0.0328715 0)
(1.6112 0.0339223 0)
(1.61009 0.0349936 0)
(1.60913 0.0360384 0)
(1.60818 0.0371227 0)
(1.60748 0.0380634 0)
(1.60662 0.0391871 0)
(1.60625 0.0398578 0)
(1.60537 0.0411361 0)
(1.7197 0.0345958 0)
(1.71873 0.0325981 0)
(1.71752 0.0313462 0)
(1.7167 0.0303623 0)
(1.7163 0.0296689 0)
(1.71617 0.0293536 0)
(1.71619 0.0294178 0)
(1.71642 0.0297684 0)
(1.71678 0.030338 0)
(1.71737 0.0310519 0)
(1.71804 0.0318886 0)
(1.71893 0.0328001 0)
(1.71979 0.0337673 0)
(1.72094 0.0347702 0)
(1.7219 0.0357512 0)
(1.72331 0.0367873 0)
(1.72424 0.0376691 0)
(1.72598 0.0387487 0)
(1.72666 0.0393598 0)
(1.72898 0.0405929 0)
(1.79511 0.0358351 0)
(1.79579 0.0331645 0)
(1.79585 0.0313848 0)
(1.7961 0.0301389 0)
(1.79674 0.0292678 0)
(1.79774 0.0287479 0)
(1.79891 0.0285825 0)
(1.80032 0.0287119 0)
(1.80182 0.0290817 0)
(1.80363 0.0296215 0)
(1.80544 0.0302987 0)
(1.80765 0.0310769 0)
(1.80967 0.0319172 0)
(1.81228 0.0328292 0)
(1.81435 0.0337105 0)
(1.81741 0.0346961 0)
(1.81929 0.0354936 0)
(1.82301 0.0365574 0)
(1.82428 0.0371018 0)
(1.8291 0.0383503 0)
(1.87017 0.0355914 0)
(1.87175 0.0326225 0)
(1.87267 0.0305153 0)
(1.87356 0.0290457 0)
(1.87473 0.0280118 0)
(1.87626 0.0273212 0)
(1.87795 0.0269567 0)
(1.87991 0.0268806 0)
(1.88189 0.0270487 0)
(1.88425 0.0274068 0)
(1.88652 0.0279063 0)
(1.88934 0.0285321 0)
(1.89181 0.0292155 0)
(1.89512 0.0300084 0)
(1.89762 0.0307541 0)
(1.90154 0.0316568 0)
(1.90378 0.0323396 0)
(1.90858 0.0333534 0)
(1.91007 0.0338162 0)
(1.91628 0.0350331 0)
(1.94819 0.0344701 0)
(1.95023 0.0314755 0)
(1.95162 0.0292207 0)
(1.95287 0.027584 0)
(1.95424 0.0264008 0)
(1.95596 0.025563 0)
(1.95779 0.0250299 0)
(1.95993 0.0247733 0)
(1.96203 0.0247522 0)
(1.96455 0.0249326 0)
(1.96691 0.0252523 0)
(1.9699 0.0257178 0)
(1.97243 0.0262337 0)
(1.97597 0.0268872 0)
(1.9785 0.0274823 0)
(1.98272 0.0282699 0)
(1.98497 0.0288262 0)
(1.99018 0.0297443 0)
(1.99164 0.0301217 0)
(1.99837 0.0312425 0)
(2.02863 0.0329637 0)
(2.03092 0.0300648 0)
(2.0326 0.0277612 0)
(2.03408 0.0260084 0)
(2.03556 0.0246975 0)
(2.03735 0.023732 0)
(2.0392 0.023056 0)
(2.04138 0.022643 0)
(2.04347 0.0224511 0)
(2.046 0.0224637 0)
(2.0483 0.0226116 0)
(2.05129 0.0229166 0)
(2.05372 0.0232688 0)
(2.05727 0.0237733 0)
(2.05968 0.0242194 0)
(2.06394 0.0248708 0)
(2.06606 0.0253034 0)
(2.07132 0.0260922 0)
(2.07268 0.0263895 0)
(2.07945 0.0273672 0)
(2.10893 0.0312144 0)
(2.11145 0.0284374 0)
(2.11342 0.0261356 0)
(2.11517 0.0243163 0)
(2.11684 0.0229131 0)
(2.11877 0.0218474 0)
(2.1207 0.0210565 0)
(2.12296 0.0205138 0)
(2.12508 0.0201762 0)
(2.12766 0.0200387 0)
(2.12992 0.0200321 0)
(2.13293 0.0201856 0)
(2.13529 0.0203878 0)
(2.13884 0.0207446 0)
(2.14115 0.0210535 0)
(2.14539 0.0215618 0)
(2.1474 0.0218816 0)
(2.15262 0.0225258 0)
(2.15389 0.022752 0)
(2.16057 0.0235653 0)
(2.1863 0.0291 0)
(2.1892 0.0264549 0)
(2.1916 0.0241949 0)
(2.19379 0.0223597 0)
(2.19583 0.0209092 0)
(2.19807 0.0197794 0)
(2.20025 0.0189068 0)
(2.20274 0.0182655 0)
(2.20504 0.017813 0)
(2.20781 0.0175507 0)
(2.21019 0.0174143 0)
(2.21333 0.0174346 0)
(2.21575 0.0175073 0)
(2.21939 0.0177291 0)
(2.22171 0.0179183 0)
(2.22602 0.0182908 0)
(2.22801 0.0185121 0)
(2.23326 0.0190151 0)
(2.2345 0.0191798 0)
(2.24116 0.0198315 0)
(2.25938 0.0263832 0)
(2.26285 0.0238974 0)
(2.26589 0.021723 0)
(2.26874 0.0199241 0)
(2.27135 0.0184759 0)
(2.27412 0.0173252 0)
(2.27674 0.0164102 0)
(2.27966 0.0157079 0)
(2.28231 0.0151771 0)
(2.28543 0.014824 0)
(2.28809 0.0145894 0)
(2.29153 0.014505 0)
(2.29415 0.014475 0)
(2.29803 0.014586 0)
(2.30048 0.0146778 0)
(2.30499 0.0149358 0)
(2.30705 0.015076 0)
(2.31247 0.0154577 0)
(2.31373 0.0155714 0)
(2.32051 0.0160839 0)
(2.32959 0.0228264 0)
(2.33376 0.0205454 0)
(2.33758 0.0185103 0)
(2.34121 0.0168046 0)
(2.34455 0.0154128 0)
(2.34797 0.014292 0)
(2.35115 0.0133815 0)
(2.35461 0.0126646 0)
(2.35772 0.0120994 0)
(2.3613 0.0116992 0)
(2.36433 0.0114057 0)
(2.36814 0.0112557 0)
(2.37104 0.0111563 0)
(2.37523 0.0111924 0)
(2.37788 0.0112145 0)
(2.38263 0.0113917 0)
(2.38481 0.0114715 0)
(2.39043 0.0117659 0)
(2.39175 0.0118406 0)
(2.39869 0.0122521 0)
(2.40159 0.0183337 0)
(2.40636 0.0163141 0)
(2.41087 0.0144834 0)
(2.4152 0.0129348 0)
(2.41918 0.011658 0)
(2.42316 0.0106232 0)
(2.42683 0.00977004 0)
(2.43073 0.0090919 0)
(2.43422 0.00854223 0)
(2.43815 0.00814553 0)
(2.44147 0.00783771 0)
(2.44555 0.00766878 0)
(2.44865 0.00753826 0)
(2.45303 0.0075428 0)
(2.4558 0.00752644 0)
(2.46067 0.00766456 0)
(2.46292 0.00770707 0)
(2.46858 0.00795628 0)
(2.46992 0.008005 0)
(2.47683 0.00836168 0)
(2.48175 0.0131578 0)
(2.48668 0.0114513 0)
(2.49142 0.00988744 0)
(2.49602 0.00855574 0)
(2.50022 0.00744658 0)
(2.50436 0.00654799 0)
(2.50815 0.00580024 0)
(2.5121 0.00520987 0)
(2.51563 0.00472185 0)
(2.51954 0.00437581 0)
(2.52283 0.00409523 0)
(2.52682 0.00395077 0)
(2.52984 0.00382475 0)
(2.53404 0.00383794 0)
(2.5367 0.0038122 0)
(2.54131 0.0039494 0)
(2.54343 0.00397607 0)
(2.54873 0.004218 0)
(2.54999 0.00425267 0)
(2.5564 0.00459521 0)
(2.57398 0.00799172 0)
(2.57833 0.00662127 0)
(2.58259 0.0053574 0)
(2.58673 0.0042747 0)
(2.59049 0.00336186 0)
(2.59415 0.00262669 0)
(2.59744 0.00201053 0)
(2.60085 0.00153539 0)
(2.60387 0.00113503 0)
(2.6072 0.000866781 0)
(2.60998 0.000639196 0)
(2.61333 0.000544595 0)
(2.61585 0.000445247 0)
(2.61935 0.000489808 0)
(2.62154 0.000473066 0)
(2.62536 0.000629781 0)
(2.62708 0.000654418 0)
(2.63145 0.000908192 0)
(2.63246 0.000936923 0)
(2.63771 0.00128487 0)
(2.67524 0.00372127 0)
(2.67837 0.00266697 0)
(2.68148 0.00169384 0)
(2.68451 0.000850686 0)
(2.6872 0.000128167 0)
(2.68977 -0.00044736 0)
(2.69203 -0.00093301 0)
(2.69435 -0.00129454 0)
(2.69635 -0.00160507 0)
(2.69859 -0.00179584 0)
(2.7004 -0.00196817 0)
(2.70263 -0.00201411 0)
(2.70424 -0.00208394 0)
(2.70656 -0.00201081 0)
(2.70795 -0.00201565 0)
(2.71048 -0.00184432 0)
(2.71157 -0.00181885 0)
(2.71448 -0.00156066 0)
(2.71511 -0.00153562 0)
(2.71862 -0.00119185 0)
(2.77528 0.000902286 0)
(2.77697 0.000120727 0)
(2.77869 -0.000598894 0)
(2.78034 -0.00122718 0)
(2.78172 -0.00177701 0)
(2.78295 -0.00221259 0)
(2.78394 -0.00258367 0)
(2.78492 -0.00285023 0)
(2.78571 -0.00308374 0)
(2.7866 -0.0032148 0)
(2.78726 -0.00334309 0)
(2.78812 -0.00335867 0)
(2.78867 -0.00340774 0)
(2.78958 -0.0033259 0)
(2.79003 -0.00332534 0)
(2.79104 -0.00316169 0)
(2.79139 -0.00313927 0)
(2.79259 -0.00290235 0)
(2.79278 -0.00288233 0)
(2.79425 -0.00257251 0)
(2.86167 -0.000499254 0)
(2.86214 -0.00104881 0)
(2.86264 -0.00154918 0)
(2.86305 -0.0019819 0)
(2.86326 -0.00236697 0)
(2.86328 -0.00267196 0)
(2.86312 -0.00293496 0)
(2.86288 -0.00311825 0)
(2.86256 -0.00328278 0)
(2.8622 -0.00336807 0)
(2.86181 -0.00345801 0)
(2.8614 -0.0034588 0)
(2.86097 -0.00349232 0)
(2.86054 -0.00342067 0)
(2.86014 -0.00341888 0)
(2.85971 -0.00328559 0)
(2.85938 -0.00326879 0)
(2.85896 -0.00307986 0)
(2.85877 -0.00306548 0)
(2.85833 -0.00282077 0)
(2.92477 -0.000724831 0)
(2.92437 -0.00108967 0)
(2.924 -0.00140563 0)
(2.92351 -0.00166838 0)
(2.92286 -0.00189954 0)
(2.92197 -0.00208018 0)
(2.92098 -0.00223638 0)
(2.91982 -0.00234263 0)
(2.91868 -0.00243948 0)
(2.91739 -0.00248634 0)
(2.91622 -0.00253857 0)
(2.91484 -0.00253417 0)
(2.9137 -0.00255266 0)
(2.91225 -0.00250388 0)
(2.91122 -0.00250124 0)
(2.90969 -0.0024145 0)
(2.90887 -0.00240315 0)
(2.90722 -0.00228192 0)
(2.90673 -0.00227253 0)
(2.90484 -0.00211612 0)
(2.95814 -0.000149135 0)
(2.95726 -0.000316922 0)
(2.95644 -0.00045457 0)
(2.95547 -0.000563953 0)
(2.95436 -0.000656652 0)
(2.95299 -0.000728519 0)
(2.95154 -0.00078986 0)
(2.94989 -0.000832346 0)
(2.94831 -0.000870371 0)
(2.94652 -0.000890198 0)
(2.94492 -0.000911128 0)
(2.94303 -0.000912054 0)
(2.94149 -0.000920278 0)
(2.9395 -0.000905179 0)
(2.93813 -0.000905392 0)
(2.93601 -0.00087685 0)
(2.93492 -0.000873547 0)
(2.9326 -0.000832971 0)
(2.93197 -0.000829968 0)
(2.92929 -0.000777166 0)
(1.77674 0.125501 1.99147e-21)
(1.78434 0.113503 0)
(1.78203 0.100983 -3.49695e-22)
(1.77133 0.0883498 -1.0568e-20)
(1.75084 0.075742 1.72214e-20)
(1.72457 0.0642429 0)
(1.68747 0.0522648 1.41493e-20)
(1.63842 0.0443463 0)
(1.59136 0.0302644 1.28917e-20)
(1.42084 0.0192384 -1.96298e-22)
(1.83379 0.115774 -2.25982e-21)
(1.83966 0.10572 4.43593e-22)
(1.83642 0.0949885 -4.44484e-22)
(1.82453 0.0852358 -1.06181e-21)
(1.80573 0.0743261 -1.00365e-20)
(1.77619 0.0662612 -5.99013e-22)
(1.75224 0.0555605 0)
(1.69054 0.0496594 -1.52952e-20)
(1.68936 0.0421494 0)
(1.54213 0.0279588 -1.26224e-20)
(1.89616 0.106025 4.65077e-21)
(1.89932 0.0976089 0)
(1.89694 0.0879335 -4.19525e-22)
(1.88114 0.0801596 -5.79516e-22)
(1.86758 0.0706869 1.06487e-20)
(1.82933 0.0644045 0)
(1.81918 0.0566901 1.81386e-20)
(1.7456 0.0497885 1.57524e-20)
(1.75696 0.0473161 0)
(1.6397 0.0346347 1.24926e-20)
(1.96095 0.0973674 -2.10393e-21)
(1.961 0.0901288 8.55626e-21)
(1.96167 0.0817168 0)
(1.94123 0.0749446 1.30915e-20)
(1.93418 0.0673611 7.12385e-22)
(1.88877 0.0609055 -1.3515e-21)
(1.88525 0.056063 -1.7411e-20)
(1.81025 0.0478698 -5.738e-22)
(1.81515 0.0468409 -1.68606e-20)
(1.71985 0.0381977 0)
(2.02551 0.089675 0)
(2.023 0.0831666 -8.34664e-21)
(2.02716 0.0763162 -9.32551e-21)
(2.00413 0.0698469 1.33599e-21)
(2.00158 0.0642405 -8.56753e-22)
(1.95496 0.0572838 -6.88112e-22)
(1.95113 0.0540397 -2.04273e-20)
(1.88208 0.0463371 -1.18474e-21)
(1.87824 0.044716 -7.19055e-22)
(1.79352 0.0394909 1.60117e-20)
(2.08748 0.0825585 2.68401e-21)
(2.0839 0.0765411 5.63422e-22)
(2.09044 0.0711453 -1.43394e-21)
(2.06799 0.0649171 5.04916e-22)
(2.06739 0.0607074 -1.41294e-20)
(2.0245 0.0541047 0)
(2.01872 0.0512768 2.23521e-20)
(1.95685 0.0453048 -6.63401e-22)
(1.9491 0.0427001 3.69786e-20)
(1.86799 0.0392666 -3.28842e-20)
(2.14517 0.0756699 -2.69722e-21)
(2.14203 0.070182 -5.00743e-21)
(2.14987 0.0658251 8.74011e-21)
(2.1302 0.0601949 -1.53988e-20)
(2.13068 0.0566794 -1.6357e-21)
(2.09321 0.0511936 -1.33517e-20)
(2.08761 0.0482478 7.03489e-22)
(2.03144 0.0439122 -1.33958e-21)
(2.02443 0.0407132 -1.83139e-20)
(1.94581 0.0380521 1.6864e-20)
(2.19794 0.0687144 0)
(2.19609 0.0639116 1.08099e-20)
(2.20492 0.0602116 -1.15924e-21)
(2.18859 0.0554884 8.44278e-21)
(2.19074 0.0522985 -6.17327e-22)
(2.15825 0.0480614 2.65002e-20)
(2.15526 0.0450353 -1.19297e-20)
(2.10397 0.0417638 0)
(2.10006 0.038534 0)
(2.02612 0.0363295 0)
(2.24658 0.0615046 0)
(2.24615 0.0574636 -9.8846e-21)
(2.25609 0.0542412 -6.27204e-22)
(2.24264 0.0504703 8.5322e-21)
(2.24703 0.04758 1.54962e-20)
(2.21871 0.0443539 -1.48211e-20)
(2.21921 0.0415323 1.43397e-20)
(2.17321 0.0389773 -7.69848e-22)
(2.17274 0.0360978 0)
(2.10624 0.0343421 9.93266e-21)
(2.29356 0.0539331 3.54029e-22)
(2.29435 0.0506067 5.6373e-21)
(2.30526 0.0478316 8.74218e-21)
(2.29402 0.0448826 -4.87309e-22)
(2.30026 0.0423936 1.06704e-21)
(2.27554 0.0399403 -1.59309e-20)
(2.27874 0.0375526 1.54344e-20)
(2.23864 0.0356366 -7.99489e-22)
(2.24065 0.0332129 0)
(2.1833 0.0320031 -2.01579e-20)
(2.34325 0.0460394 0)
(2.34494 0.0433102 5.5771e-21)
(2.35614 0.0409675 2.07006e-22)
(2.34647 0.0386788 0)
(2.3533 0.0366279 0)
(2.33162 0.0348178 1.41205e-20)
(2.33576 0.0328929 -1.28073e-20)
(2.30131 0.0316303 -7.61233e-22)
(2.30428 0.0295914 4.0464e-22)
(2.25586 0.0290473 1.05637e-20)
(2.40118 0.0378014 0)
(2.40332 0.0356416 -1.06128e-20)
(2.41387 0.033709 -1.15594e-20)
(2.4051 0.0319799 1.7527e-21)
(2.41106 0.0302949 -1.12524e-21)
(2.39152 0.0290585 -9.44911e-22)
(2.39481 0.0274641 1.7931e-21)
(2.36458 0.026839 1.1565e-20)
(2.36712 0.0250605 1.12863e-21)
(2.32541 0.0252155 -3.50685e-22)
(2.47223 0.029587 0)
(2.47416 0.0279747 5.71464e-21)
(2.48323 0.026379 -6.34694e-22)
(2.47467 0.025127 6.29453e-22)
(2.47888 0.0236675 0)
(2.46035 0.0229062 0)
(2.46188 0.0214674 0)
(2.43376 0.0213525 -1.31365e-20)
(2.4352 0.0197283 1.23325e-20)
(2.39683 0.0204152 0)
(2.55739 0.0221556 0)
(2.55842 0.0209653 3.64215e-21)
(2.56575 0.019594 4.71044e-21)
(2.55689 0.018685 6.14211e-21)
(2.55949 0.017332 -1.17099e-21)
(2.54119 0.0168603 7.28947e-21)
(2.5413 0.0154725 -6.59019e-21)
(2.51376 0.0155931 0)
(2.51432 0.0140786 6.72412e-22)
(2.47686 0.0149156 -1.17347e-20)
(2.65158 0.0160451 -8.05991e-22)
(2.65139 0.0151296 -2.95219e-21)
(2.65729 0.0139382 -6.08868e-21)
(2.64825 0.0132056 -4.32019e-21)
(2.65012 0.0119518 0)
(2.63234 0.0115351 -9.28308e-21)
(2.63215 0.0102237 9.45013e-21)
(2.60549 0.0102457 -8.9784e-22)
(2.60586 0.00887573 -6.09844e-21)
(2.56969 0.00943134 1.70269e-20)
(2.74453 0.0114729 8.10127e-22)
(2.74356 0.0106933 -2.29018e-21)
(2.74856 0.00970581 2.06087e-21)
(2.74027 0.00900602 -5.10128e-21)
(2.74227 0.00793371 0)
(2.72648 0.00739805 0)
(2.7269 0.00626898 9.30994e-22)
(2.70333 0.0059808 -8.81282e-21)
(2.70395 0.00482596 -5.48752e-21)
(2.67221 0.00486969 -5.70892e-21)
(2.82563 0.00811707 0)
(2.82488 0.00741847 3.76201e-21)
(2.82936 0.00668622 -1.38293e-21)
(2.8231 0.00598388 4.54236e-21)
(2.82547 0.00517948 1.22012e-21)
(2.81351 0.0045137 -1.03535e-21)
(2.81459 0.00365213 1.95362e-21)
(2.79675 0.00308052 6.10702e-21)
(2.79751 0.00218216 0)
(2.7737 0.00179225 0)
(2.88926 0.00535165 0)
(2.88952 0.00480779 1.53681e-21)
(2.89343 0.00437375 -2.82128e-21)
(2.88996 0.00376688 0)
(2.89232 0.00326462 -2.38269e-21)
(2.88508 0.00260928 -1.04561e-21)
(2.88629 0.00203289 -2.93176e-21)
(2.87533 0.00137447 -8.62124e-22)
(2.87585 0.000729981 4.45907e-22)
(2.86131 0.000154401 3.78587e-22)
(2.93454 0.00284247 0)
(2.93568 0.00257881 -1.54416e-21)
(2.93872 0.0024517 -1.40257e-21)
(2.93766 0.00210055 1.94312e-21)
(2.93948 0.00189241 1.14577e-21)
(2.93632 0.00144689 1.09152e-21)
(2.93713 0.00113985 4.89831e-21)
(2.93204 0.000631369 -3.58923e-21)
(2.93202 0.000225939 8.37793e-22)
(2.92528 -0.000280126 0)
(2.95928 0.000673946 0)
(2.96074 0.000702287 7.563e-22)
(2.96299 0.000786043 -7.24113e-22)
(2.96319 0.000759203 6.85901e-22)
(2.96445 0.000779081 0)
(2.96353 0.000673653 -1.09691e-21)
(2.96387 0.0006105 9.63463e-22)
(2.96205 0.000432525 8.63463e-22)
(2.96157 0.00028402 0)
(2.95914 5.74355e-05 0)
(1.12128 0.227892 0)
(1.06049 0.248442 -5.59481e-20)
(1.01219 0.276505 0)
(0.973 0.312993 -1.85444e-19)
(0.938763 0.357494 7.00042e-20)
(0.907051 0.411628 2.14253e-21)
(0.874477 0.475496 6.25671e-20)
(0.823132 0.537299 -6.75382e-21)
(0.696309 0.543558 0)
(0.384793 0.331656 6.64612e-20)
(1.21142 0.230731 1.02473e-19)
(1.15199 0.257219 5.5947e-20)
(1.10343 0.283965 -5.35714e-20)
(1.0628 0.319265 6.24292e-20)
(1.02831 0.363708 -5.43024e-20)
(0.998749 0.417846 7.07847e-21)
(0.969988 0.481221 -6.39978e-20)
(0.92111 0.541251 -1.28297e-19)
(0.786323 0.543892 -3.40841e-20)
(0.43501 0.326631 -9.74498e-20)
(1.29634 0.229697 -4.57385e-20)
(1.24114 0.258357 4.74351e-20)
(1.1936 0.284457 5.35698e-20)
(1.15173 0.318887 5.50524e-20)
(1.11674 0.362789 5.64211e-20)
(1.08897 0.41605 5.74226e-20)
(1.06346 0.477577 8.43827e-21)
(1.01584 0.533759 5.6604e-20)
(0.871197 0.530903 2.30771e-20)
(0.479265 0.31165 -2.46343e-20)
(1.37853 0.226123 9.13433e-20)
(1.32618 0.25522 -4.74331e-20)
(1.27956 0.28046 0)
(1.23717 0.313486 0)
(1.20211 0.355772 0)
(1.17589 0.40688 4.41902e-20)
(1.15269 0.464994 -3.87968e-20)
(1.10438 0.515038 0)
(0.947206 0.504794 1.71975e-20)
(0.514357 0.287121 -3.54041e-20)
(1.45564 0.219763 -1.73863e-20)
(1.40481 0.248009 6.23814e-20)
(1.35893 0.27219 0)
(1.31677 0.303448 0)
(1.28226 0.343231 1.8436e-20)