/*--------------------------------*- C++ -*----------------------------------*\
| =========                 |                                                 |
| \\      /  F ield         | OpenFOAM: The Open Source CFD Toolbox           |
|  \\    /   O peration     | Version:  4.1                                   |
|   \\  /    A nd           | Web:      www.OpenFOAM.org                      |
|    \\/     M anipulation  |                                                 |
\*---------------------------------------------------------------------------*/
FoamFile
{
    version     2.0;
    format      ascii;
    class       volScalarField;
    location    "14";
    object      p;
}
// * * * * * * * * * * * * * * * * * * * * * * * * * * * * * * * * * * * * * //

dimensions      [0 2 -2 0 0 0 0];

internalField   nonuniform List<scalar> 
2000
(
-0.0976258
-0.0876727
-0.0787074
-0.070255
-0.0624169
-0.055026
-0.0476271
-0.0409259
-0.033119
-0.0302609
-0.11582
-0.102268
-0.0909532
-0.0804212
-0.070412
-0.0607617
-0.0513172
-0.0423242
-0.0331498
-0.0268331
-0.137659
-0.119967
-0.106052
-0.0929498
-0.0799062
-0.0670233
-0.0544846
-0.0425506
-0.0310474
-0.0209276
-0.163023
-0.140704
-0.123803
-0.107167
-0.0897912
-0.072503
-0.0559972
-0.0406409
-0.0262128
-0.0138327
-0.190939
-0.163758
-0.143139
-0.121437
-0.0982208
-0.0755003
-0.0544571
-0.0353763
-0.018202
-0.00329779
-0.219537
-0.187587
-0.161874
-0.133228
-0.102894
-0.0741545
-0.0483743
-0.025646
-0.00569324
0.0116872
-0.245845
-0.209677
-0.176872
-0.139561
-0.101458
-0.0666747
-0.0363554
-0.0101988
0.0123869
0.0322338
-0.266146
-0.226488
-0.184652
-0.137624
-0.0918392
-0.0514861
-0.0171049
0.0120909
0.0371544
0.05932
-0.276611
-0.233902
-0.181958
-0.125147
-0.0723982
-0.0272855
0.0104737
0.0422062
0.0694238
0.093453
-0.273873
-0.228172
-0.166038
-0.100479
-0.0419844
0.00686443
0.0471933
0.0808589
0.109759
0.134975
-0.0237891
-0.0271745
-0.028314
-0.0287822
-0.0288981
-0.0286448
-0.0280308
-0.0270948
-0.0259265
-0.0247248
-0.0254358
-0.0286076
-0.0296113
-0.0299883
-0.0300175
-0.0296643
-0.0289241
-0.0278101
-0.0263809
-0.0249921
-0.0286178
-0.031339
-0.0320886
-0.0322669
-0.0321044
-0.0315378
-0.0305355
-0.0290785
-0.0271269
-0.0251463
-0.0330989
-0.0351708
-0.0355228
-0.0353728
-0.0348996
-0.0339997
-0.032599
-0.0306708
-0.0279808
-0.0241673
-0.0386388
-0.0398871
-0.0396698
-0.0390338
-0.0381185
-0.0367787
-0.0348654
-0.032271
-0.0285237
-0.0233895
-0.045072
-0.0453239
-0.0443196
-0.0430037
-0.0414941
-0.0396115
-0.0371204
-0.0338217
-0.0290889
-0.0211236
-0.05239
-0.0514313
-0.0493637
-0.0471313
-0.0448149
-0.042247
-0.0390833
-0.0350409
-0.0300208
-0.018277
-0.0608121
-0.0582584
-0.0549323
-0.0514696
-0.048084
-0.0446319
-0.0406645
-0.0357341
-0.0309832
-0.0165553
-0.0707422
-0.0662287
-0.0612981
-0.0563437
-0.0516821
-0.0471534
-0.0422571
-0.0365692
-0.0314333
-0.0175078
-0.0827873
-0.0758409
-0.0690068
-0.0623916
-0.056262
-0.0504743
-0.0444859
-0.0385094
-0.0320978
-0.0231774
-0.0236533
-0.0223242
-0.0208846
-0.0193929
-0.0178601
-0.0163015
-0.0147347
-0.0131757
-0.0116392
-0.0101398
-0.00869264
-0.00731422
-0.0060233
-0.00484023
-0.00378309
-0.00286285
-0.00209979
-0.00155297
-0.00121082
-0.000614998
-0.024251
-0.0228291
-0.02127
-0.0196986
-0.018099
-0.0164785
-0.0148547
-0.0132428
-0.0116567
-0.0101092
-0.0086143
-0.00718866
-0.00585173
-0.00462554
-0.00353128
-0.00258519
-0.00181082
-0.00126901
-0.000976781
-0.000530612
-0.0253104
-0.0236512
-0.0218721
-0.0201614
-0.0184414
-0.0167085
-0.014981
-0.0132741
-0.0115998
-0.00996578
-0.00838511
-0.00687559
-0.00545874
-0.00416004
-0.00300635
-0.00202181
-0.00123731
-0.000715587
-0.000510998
-0.000338497
-0.0271914
-0.0244606
-0.0224048
-0.0205499
-0.0186871
-0.0168152
-0.0149592
-0.0131392
-0.0113717
-0.00963302
-0.00794171
-0.00632273
-0.00480408
-0.00342015
-0.00220202
-0.00117365
-0.000389687
8.40257e-05
0.000162226
-4.5796e-05
-0.0276001
-0.0257769
-0.0230522
-0.0207846
-0.0187358
-0.0166847
-0.0146222
-0.012602
-0.0107726
-0.00894686
-0.00717839
-0.00548937
-0.00389979
-0.00243081
-0.00112086
-3.30372e-05
0.000708323
0.00107769
0.000971001
0.000362846
-0.0282077
-0.0270775
-0.0235264
-0.0208256
-0.0187269
-0.0166631
-0.0145363
-0.012404
-0.0101837
-0.00810524
-0.00614307
-0.00430306
-0.00260359
-0.00107523
0.000236858
0.00125622
0.00195957
0.00218379
0.00184573
0.000785227
-0.0282975
-0.0287564
-0.0243265
-0.0206928
-0.0182902
-0.0160871
-0.0137436
-0.0113774
-0.00908268
-0.00690697
-0.00484416
-0.00291167
-0.00114192
0.000420894
0.00172594
0.00269733
0.00326518
0.00328199
0.00265042
0.00115108
-0.0283126
-0.0300789
-0.0249836
-0.0206107
-0.0179741
-0.0156299
-0.0130795
-0.0105176
-0.00808124
-0.00577343
-0.00358873
-0.00156009
0.000270437
0.00184746
0.00312249
0.00400229
0.00442104
0.00419399
0.0032892
0.00137081
-0.0283979
-0.0298847
-0.0243082
-0.0198469
-0.0171629
-0.0146191
-0.0118961
-0.00926323
-0.00680024
-0.00446721
-0.00226016
-0.000228956
0.00158118
0.00310108
0.00429099
0.00503063
0.00527945
0.00480943
0.00364531
0.00143459
-0.0318877
-0.0296581
-0.0238134
-0.0198665
-0.0167764
-0.0136206
-0.0105854
-0.0078554
-0.00536387
-0.00304113
-0.000884098
0.00105636
0.00274975
0.00411999
0.00514582
0.00569187
0.00575928
0.00509142
0.00376636
0.00141826
-0.0208179
-0.0182755
-0.0172213
-0.015598
-0.0131869
-0.0105183
-0.00797606
-0.00563153
-0.00343341
-0.0013708
0.000538378
0.00223427
0.00369091
0.00482345
0.0056221
0.00594388
0.00581114
0.00498306
0.00358523
0.00129355
-0.0177218
-0.0153687
-0.01358
-0.0116091
-0.0093529
-0.00708378
-0.00496474
-0.00300076
-0.00115609
0.000559148
0.00212452
0.00348377
0.00461573
0.00543947
0.00594822
0.00601303
0.00566538
0.00470662
0.00327695
0.00111704
-0.00986342
-0.00966015
-0.00815853
-0.00623251
-0.00441272
-0.00279622
-0.00130811
0.000113002
0.00147868
0.00275046
0.00389521
0.00485775
0.00561596
0.0060984
0.00629527
0.00610356
0.00554747
0.00448692
0.00303621
0.001036
-0.00039244
-0.00257278
-0.00197829
-0.000475084
0.000821994
0.00177948
0.00260566
0.00343532
0.00427943
0.0050789
0.00578295
0.00633552
0.00671129
0.00685217
0.00674216
0.00630609
0.00555195
0.00439579
0.00290632
0.00101468
0.00954605
0.0056903
0.00499969
0.00568662
0.0063245
0.0066187
0.00677859
0.00698623
0.00727236
0.00757258
0.00781961
0.00795323
0.00794256
0.0077411
0.00732716
0.00664777
0.00569627
0.00442733
0.00287155
0.00101656
0.0200087
0.0147549
0.0125958
0.0122232
0.012064
0.0116717
0.0111653
0.0107341
0.0104354
0.0102132
0.00998958
0.00969727
0.00929836
0.00875295
0.00803663
0.00710951
0.00595757
0.00455267
0.00290751
0.00102642
0.0307459
0.0241605
0.0206783
0.0190356
0.0179876
0.0168748
0.0156946
0.0146191
0.0137241
0.0129662
0.012263
0.0115402
0.0107529
0.00986266
0.00884511
0.0076649
0.00630802
0.00474685
0.00299389
0.00104076
0.0412797
0.0334624
0.0286747
0.0259605
0.02402
0.0221577
0.0202989
0.0185846
0.0170946
0.0157969
0.01461
0.0134547
0.01228
0.0110456
0.00972774
0.00829055
0.00672358
0.00499168
0.00311528
0.00106166
0.0513513
0.0425498
0.0366742
0.032922
0.0300685
0.0274393
0.0249055
0.022566
0.0204929
0.0186619
0.0169944
0.0154096
0.0138515
0.0122769
0.0106611
0.00896671
0.00718522
0.00527515
0.00326186
0.00109438
0.0608546
0.0513311
0.0445197
0.0397806
0.0360258
0.0326298
0.0294296
0.0264884
0.0238567
0.0215104
0.0193744
0.0173706
0.0154381
0.0135325
0.0116241
0.00967734
0.00767913
0.00559008
0.0034287
0.00114458
0.0696803
0.0596851
0.0520699
0.0463944
0.0417694
0.0376213
0.0337864
0.0302796
0.0271222
0.0242886
0.021706
0.019302
0.0170105
0.0147887
0.0125975
0.0104081
0.00819444
0.00593048
0.00361277
0.00121448
0.0776998
0.0674737
0.0591821
0.0526228
0.0471577
0.0423128
0.037893
0.0338683
0.0302299
0.0269465
0.0239475
0.0211691
0.0185404
0.0160222
0.0135629
0.0111438
0.00872053
0.00628791
0.00381006
0.00129966
0.0848351
0.0745713
0.0657284
0.0583628
0.0521178
0.0466317
0.0416872
0.037202
0.0331324
0.0294418
0.026063
0.0229411
0.020002
0.0172097
0.0145016
0.011867
0.00924504
0.00664937
0.00401369
0.00138794
0.0911034
0.0808973
0.0716155
0.0635491
0.0566079
0.0505461
0.0451367
0.0402465
0.035797
0.0317437
0.028025
0.0245923
0.0213725
0.018329
0.0153944
0.0125585
0.00975347
0.00699819
0.00421375
0.00146255
0.0965864
0.0864208
0.0767908
0.0681478
0.0606156
0.0540514
0.0482316
0.0429838
0.0382021
0.0338297
0.0298119
0.0261008
0.0226312
0.019359
0.0162226
0.0131988
0.0102303
0.00731787
0.00439946
0.0015094
0.101334
0.0911219
0.0812135
0.0721302
0.0641266
0.0571378
0.0509592
0.0453964
0.0403269
0.0356778
0.0314016
0.0274451
0.0237574
0.0202797
0.0169673
0.0137708
0.0106606
0.00759652
0.00456228
0.00152472
0.105302
0.0949477
0.0848274
0.075442
0.067091
0.059761
0.0532797
0.0474473
0.0421354
0.0372534
0.0327616
0.028596
0.0247246
0.0210685
0.0176081
0.0142589
0.0110306
0.00782762
0.00469723
0.00151667
0.108402
0.0978627
0.0875837
0.0780039
0.0694168
0.0618345
0.0551175
0.0490705
0.043568
0.0385032
0.0338439
0.0295125
0.0254967
0.0216968
0.01812
0.0146459
0.0113253
0.00800639
0.00480079
0.00149803
0.110622
0.0998991
0.0894866
0.0797733
0.0710318
0.0632791
0.0563985
0.0502005
0.0445655
0.0393741
0.0345997
0.030153
0.0260369
0.0221356
0.0184779
0.0149155
0.0115305
0.00812893
0.00487023
0.00147963
0.111936
0.101083
0.0905518
0.0807392
0.0719025
0.0640524
0.0570796
0.0507983
0.0450911
0.0398327
0.0349969
0.0304898
0.0263201
0.0223664
0.0186647
0.0150576
0.0116368
0.00819482
0.00490497
0.00147265
0.154982
0.113673
0.0789632
0.0506446
0.0284861
0.0116887
-0.000493142
-0.00967309
-0.015329
-0.0269499
0.171602
0.131627
0.0976772
0.069261
0.0463988
0.0277855
0.0139675
0.000923129
-0.00625784
-0.0205717
0.187057
0.148681
0.115868
0.087624
0.0644405
0.0440306
0.0286936
0.0126253
0.00462614
-0.00926138
0.201251
0.164323
0.132499
0.104318
0.0809404
0.0593157
0.0432746
0.0262951
0.017694
0.00360407
0.214186
0.178463
0.147444
0.119337
0.0959641
0.0738943
0.0576521
0.0404498
0.030449
0.0155322
0.225948
0.19127
0.160987
0.133116
0.109938
0.0878323
0.0712622
0.053634
0.0422363
0.0269719
0.236612
0.202886
0.173319
0.145822
0.122878
0.100807
0.0837994
0.0658781
0.0537869
0.0386214
0.246215
0.213366
0.184473
0.157403
0.134662
0.112689
0.0954359
0.0775998
0.0652204
0.0502142
0.25477
0.222718
0.194435
0.167809
0.145277
0.123541
0.106261
0.0886968
0.0760215
0.061232
0.262301
0.230974
0.203223
0.177063
0.154765
0.133374
0.116116
0.0988362
0.0858236
0.0714005
0.268848
0.238201
0.210911
0.185226
0.163159
0.142141
0.124868
0.107867
0.0945798
0.0805828
0.274466
0.244463
0.21759
0.192376
0.170519
0.149855
0.132558
0.11582
0.102358
0.0886728
0.279239
0.249822
0.223359
0.198599
0.176952
0.156599
0.139324
0.122778
0.109237
0.0956646
0.28327
0.254395
0.22834
0.203997
0.182581
0.162484
0.145294
0.12885
0.11531
0.101712
0.286678
0.2583
0.23264
0.208668
0.187496
0.167611
0.15054
0.134163
0.120658
0.107048
0.289539
0.261614
0.236314
0.212676
0.191731
0.172052
0.155083
0.13882
0.125314
0.11182
0.291875
0.264361
0.239361
0.216042
0.195274
0.175831
0.158907
0.142841
0.129251
0.115987
0.293634
0.2665
0.241743
0.218738
0.198094
0.178917
0.161987
0.146165
0.132424
0.119383
0.294696
0.267911
0.243361
0.22066
0.200124
0.181214
0.164273
0.148682
0.134792
0.121895
0.295
0.268445
0.244041
0.221571
0.20114
0.182441
0.165529
0.150112
0.136159
0.12335
0.771893
0.77301
0.766249
0.753247
0.735322
0.712099
0.681113
0.639015
0.587397
0.558689
0.719143
0.716128
0.701115
0.681356
0.658043
0.629038
0.590952
0.540234
0.478548
0.442348
0.659965
0.651302
0.629986
0.605007
0.576739
0.541957
0.49687
0.437918
0.366739
0.323519
0.591102
0.578192
0.553292
0.52483
0.492438
0.452445
0.401047
0.334864
0.255242
0.206195
0.517772
0.501457
0.474117
0.443005
0.407122
0.362641
0.305943
0.234122
0.147523
0.0946671
0.444233
0.424707
0.395444
0.362206
0.323422
0.275218
0.214174
0.138495
0.0470826
-0.00606435
0.372704
0.35026
0.319648
0.284897
0.24392
0.192943
0.128588
0.049381
-0.0390947
-0.0933947
0.304677
0.279948
0.248717
0.213218
0.17091
0.118409
0.0525159
-0.0269059
-0.111149
-0.165032
0.241578
0.215487
0.184472
0.149027
0.106364
0.0536395
-0.0115713
-0.0886683
-0.167455
-0.219229
0.184283
0.158472
0.128357
0.0934319
0.0514377
8.7505e-06
-0.0626879
-0.135144
-0.206499
-0.255314
1.0589
1.0671
1.07666
1.08764
1.10002
1.11369
1.1282
1.14221
1.15493
1.17257
1.05591
1.06349
1.0726
1.08306
1.0948
1.10766
1.12119
1.13402
1.14537
1.16225
1.04961
1.05596
1.06416
1.07362
1.08407
1.09534
1.10691
1.11736
1.12611
1.14125
1.03944
1.04392
1.05079
1.05877
1.06733
1.07625
1.08492
1.09185
1.09675
1.10924
1.02462
1.0266
1.03173
1.03781
1.04392
1.04979
1.05469
1.05701
1.05682
1.06573
1.00426
1.00308
1.00611
1.00992
1.01309
1.01527
1.01559
1.0123
1.00584
1.01025
0.977468
0.972533
0.973271
0.974545
0.974317
0.972171
0.967171
0.957357
0.943502
0.94252
0.942629
0.933547
0.932178
0.930921
0.926986
0.920056
0.909138
0.892022
0.869772
0.862601
0.899293
0.886401
0.883557
0.879448
0.87119
0.858956
0.841613
0.816556
0.785057
0.771062
0.841877
0.830287
0.827606
0.820234
0.807205
0.78939
0.765266
0.731781
0.69037
0.669126
1.00019
1.00088
1.00214
1.00357
1.00499
1.00644
1.00798
1.00964
1.01145
1.01345
1.01564
1.01807
1.02077
1.0238
1.0272
1.03102
1.03533
1.0402
1.0457
1.05191
1.00019
1.00087
1.0021
1.00349
1.00487
1.00627
1.00776
1.00937
1.01113
1.01306
1.01518
1.01752
1.02012
1.02303
1.02628
1.02994
1.03405
1.03867
1.04385
1.04969
1.0002
1.00087
1.00201
1.0033
1.00459
1.00591
1.0073
1.0088
1.01044
1.01223
1.01419
1.01634
1.01874
1.02139
1.02435
1.02765
1.03133
1.03542
1.03994
1.04498
1.00022
1.00082
1.00183
1.00298
1.00413
1.00531
1.00654
1.00788
1.00932
1.01087
1.01257
1.01442
1.01647
1.01871
1.02118
1.02389
1.02685
1.03008
1.0335
1.03723
1.00021
1.00074
1.00155
1.00249
1.00344
1.0044
1.00541
1.00648
1.00764
1.00886
1.01017
1.01159
1.01311
1.01474
1.01648
1.01831
1.0202
1.02214
1.02394
1.0257
1.00018
1.00058
1.00114
1.0018
1.00248
1.00316
1.00385
1.00459
1.00531
1.00606
1.00684
1.00765
1.00844
1.00922
1.00993
1.01053
1.01093
1.01106
1.01059
1.00956
1.0001
1.00031
1.00056
1.00086
1.00118
1.00149
1.00178
1.00201
1.00221
1.00236
1.00245
1.00243
1.00226
1.00188
1.00121
1.00013
0.998512
0.996192
0.992766
0.988101
0.999967
0.999904
0.999783
0.999662
0.999535
0.99936
0.999101
0.998748
0.998287
0.997681
0.996888
0.995831
0.994448
0.992606
0.99021
0.987011
0.98285
0.97726
0.969837
0.959809
0.999736
0.999261
0.998739
0.998172
0.997527
0.996764
0.995865
0.994802
0.993537
0.991999
0.990125
0.987786
0.984903
0.981233
0.976706
0.970815
0.963591
0.953889
0.941878
0.924755
0.999534
0.998501
0.997524
0.996487
0.995234
0.993743
0.99205
0.990122
0.987887
0.98521
0.982005
0.978052
0.973271
0.967191
0.959818
0.95005
0.938386
0.922061
0.903563
0.875922
0.999301
0.997805
0.996483
0.994976
0.993035
0.990717
0.988147
0.985286
0.982012
0.97811
0.973479
0.96781
0.96103
0.952476
0.942214
0.928701
0.912588
0.889588
0.861885
0.815469
0.999063
0.997318
0.995681
0.993573
0.990798
0.987604
0.98421
0.980506
0.9763
0.971307
0.965456
0.958367
0.950038
0.939634
0.927395
0.911476
0.892922
0.867507
0.838892
0.798995
0.999725
0.998017
0.995819
0.992552
0.988487
0.984269
0.980098
0.975617
0.970512
0.964456
0.957454
0.949072
0.939389
0.927438
0.913655
0.89607
0.876194
0.850028
0.821997
0.784141
0.999296
0.999745
0.997721
0.992322
0.98612
0.980645
0.975771
0.97058
0.964574
0.957437
0.949304
0.939694
0.92877
0.915449
0.90038
0.881497
0.860739
0.833983
0.806227
0.769051
0.999751
1.00263
1.00008
0.991623
0.982935
0.976362
0.971038
0.965257
0.958376
0.950182
0.940981
0.93024
0.918204
0.90369
0.887559
0.867653
0.84624
0.819063
0.791538
0.755272
0.999947
1.00463
1.001
0.9893
0.978645
0.97162
0.966086
0.959674
0.951872
0.94267
0.932498
0.920744
0.907711
0.89217
0.875145
0.854459
0.832555
0.805247
0.778004
0.742904
0.994264
0.992904
0.988614
0.979425
0.971813
0.966602
0.961143
0.953815
0.944975
0.934871
0.92388
0.911254
0.897327
0.880909
0.863115
0.841876
0.819599
0.792435
0.765447
0.731642
0.998979
0.977383
0.958041
0.955887
0.960267
0.961026
0.956162
0.947615
0.937668
0.926834
0.91521
0.901874
0.887149
0.870007
0.851548
0.829962
0.807392
0.780574
0.753764
0.721299
0.992763
0.956245
0.933305
0.939561
0.952838
0.957436
0.952371
0.942328
0.931142
0.919498
0.90717
0.893117
0.877604
0.859826
0.840759
0.818962
0.796132
0.769762
0.743047
0.711858
0.991985
0.951259
0.926952
0.935335
0.950607
0.955311
0.949091
0.937768
0.92556
0.9131
0.899962
0.885155
0.868879
0.850564
0.830973
0.809057
0.786008
0.760099
0.733443
0.703364
0.996521
0.967998
0.949489
0.952286
0.958112
0.956098
0.946829
0.934403
0.921452
0.908109
0.893968
0.878294
0.861266
0.842477
0.822449
0.800445
0.777229
0.751694
0.725118
0.695893
0.988914
0.991239
0.997811
0.991285
0.977087
0.961544
0.946968
0.933141
0.919411
0.904975
0.889594
0.872894
0.855099
0.835831
0.815437
0.793294
0.769969
0.744631
0.718195
0.689489
1.00106
1.02258
1.03379
1.01741
0.989656
0.964978
0.946645
0.931868
0.91765
0.902374
0.885979
0.868402
0.850009
0.830348
0.809725
0.787422
0.764091
0.738773
0.712585
0.684045
1.008
1.03832
1.05017
1.02907
0.99515
0.966006
0.945831
0.930611
0.916109
0.900203
0.883029
0.86474
0.845896
0.825897
0.805133
0.782644
0.759373
0.733963
0.708096
0.679506
1.01052
1.04672
1.05962
1.03414
0.995494
0.964009
0.94357
0.92871
0.914297
0.898027
0.880324
0.861524
0.84235
0.822076
0.801197
0.778558
0.755353
0.729903
0.70434
0.675827
1.00717
1.05161
1.07345
1.04325
0.995895
0.959875
0.938798
0.924839
0.911056
0.894876
0.877112
0.858199
0.838882
0.818455
0.79746
0.774787
0.751615
0.726328
0.700964
0.672889
0.973758
0.984378
1.0159
1.01461
0.99146
0.964284
0.941765
0.923824
0.907707
0.891167
0.873735
0.855153
0.835851
0.815339
0.794169
0.771536
0.748332
0.723358
0.698066
0.670613
1.00242
0.936908
0.881011
0.895258
0.930689
0.946918
0.939714
0.921474
0.902646
0.885704
0.869366
0.851856
0.832963
0.81258
0.791325
0.768825
0.745618
0.721002
0.695763
0.668841
1.00812
0.938933
0.868839
0.875785
0.914837
0.936719
0.933793
0.918343
0.900655
0.883778
0.867242
0.84974
0.830912
0.810676
0.789414
0.767033
0.743812
0.719448
0.694255
0.66771
0.96938
0.986071
1.02536
1.01238
0.973547
0.943548
0.927271
0.915382
0.901687
0.885386
0.867634
0.849135
0.829957
0.809779
0.788551
0.766218
0.742945
0.718699
0.693525
0.667241
0.766004
0.709259
0.65123
0.587012
0.517994
0.448778
0.381717
0.317666
0.257742
0.203034
0.760107
0.700879
0.63976
0.578435
0.513454
0.447678
0.384339
0.324217
0.268193
0.217193
0.748435
0.691356
0.629146
0.570145
0.509802
0.447886
0.3879
0.331257
0.278694
0.23047
0.736103
0.682761
0.620879
0.562853
0.506211
0.448191
0.391386
0.33776
0.288198
0.242521
0.724209
0.674249
0.613707
0.556364
0.502621
0.448471
0.394917
0.343986
0.297001
0.253554
0.712933
0.665858
0.607386
0.550987
0.499476
0.44882
0.398486
0.350038
0.305244
0.263682
0.702219
0.657603
0.601653
0.54664
0.496955
0.449272
0.401981
0.355866
0.312947
0.272954
0.69202
0.649537
0.596435
0.543281
0.495226
0.449948
0.405342
0.361382
0.320089
0.281397
0.682421
0.641787
0.591723
0.540823
0.494307
0.450888
0.408488
0.366444
0.326582
0.288995
0.673615
0.634564
0.587536
0.539117
0.494086
0.45205
0.411332
0.370917
0.332318
0.295724
0.665904
0.628201
0.583945
0.537966
0.49433
0.453306
0.413799
0.374713
0.337204
0.301486
0.65955
0.623015
0.581013
0.537135
0.494734
0.454475
0.415834
0.377821
0.341269
0.306354
0.654541
0.619055
0.578688
0.536384
0.494999
0.455374
0.417407
0.380288
0.344634
0.310547
0.650693
0.616113
0.576811
0.535545
0.494946
0.4559
0.418534
0.382195
0.347363
0.314031
0.647638
0.613711
0.575095
0.53452
0.494547
0.456065
0.419279
0.383644
0.349549
0.316909
0.644942
0.611367
0.573314
0.533362
0.493966
0.456021
0.419774
0.384759
0.351302
0.31928
0.642454
0.60899
0.571514
0.532246
0.493412
0.455934
0.420125
0.385619
0.352686
0.321195
0.640286
0.60679
0.569824
0.5312
0.492854
0.455733
0.420243
0.386141
0.353634
0.322604
0.638865
0.605254
0.568559
0.530311
0.492225
0.45528
0.419968
0.38616
0.353993
0.323368
0.638309
0.604656
0.568048
0.529875
0.491771
0.454784
0.419466
0.385773
0.353778
0.323413
)
;

boundaryField
{
    bottom
    {
        type            symmetryPlane;
    }
    right
    {
        type            fixedValue;
        value           uniform 0;
    }
    top
    {
        type            symmetryPlane;
    }
    left
    {
        type            fixedValue;
        value           uniform 1;
    }
    cylinder
    {
        type            zeroGradient;
    }
    defaultFaces
    {
        type            empty;
    }
}


// ************************************************************************* //
