/*--------------------------------*- C++ -*----------------------------------*\
| =========                 |                                                 |
| \\      /  F ield         | OpenFOAM: The Open Source CFD Toolbox           |
|  \\    /   O peration     | Version:  4.1                                   |
|   \\  /    A nd           | Web:      www.OpenFOAM.org                      |
|    \\/     M anipulation  |                                                 |
\*---------------------------------------------------------------------------*/
FoamFile
{
    version     2.0;
    format      ascii;
    class       surfaceScalarField;
    location    "14";
    object      phi;
}
// * * * * * * * * * * * * * * * * * * * * * * * * * * * * * * * * * * * * * //

dimensions      [0 3 -1 0 0 0 0];

internalField   nonuniform List<scalar> 
3890
(
0.000405612
0.00143009
-0.0018357
0.00247121
-0.00100801
-0.00105759
0.00674125
-0.00679001
0.00251996
0.0133931
-0.0146665
0.00801465
0.0221385
-0.0234268
0.0146814
0.0323422
-0.0320042
0.0218005
0.0432523
-0.0396764
0.0287663
0.0542961
-0.0461107
0.035067
0.0649515
-0.0514883
0.0408328
-0.0549907
0.0452168
0.0747254
0.000692848
0.000737243
0.00368182
-0.00399698
0.00944055
-0.0125487
0.0177552
-0.0229812
0.0277905
-0.0334621
0.0385078
-0.0427216
0.0490457
-0.0502143
0.0588921
-0.0559571
0.0676673
-0.0602634
-0.0632258
0.0759024
0.0010762
-0.000338959
0.00514826
-0.00806904
0.0123672
-0.0197677
0.0218402
-0.0324542
0.0321799
-0.0438018
0.0422134
-0.052755
0.0512874
-0.0592884
0.059224
-0.0638936
0.0661807
-0.0672201
-0.0696715
0.0726264
0.0015492
-0.00188816
0.00675828
-0.0132781
0.0150964
-0.0281058
0.0248784
-0.0422361
0.0344691
-0.0533925
0.0429593
-0.0612453
0.05015
-0.066479
0.0562864
-0.07003
0.061751
-0.0726848
-0.07489
0.0669696
0.00209013
-0.00397829
0.00831029
-0.0194983
0.0171339
-0.0369294
0.0263163
-0.0514186
0.0344361
-0.0615123
0.0411026
-0.0679117
0.0465624
-0.0719389
0.0512784
-0.0747459
0.0556721
-0.0770785
-0.0793341
0.0601162
0.00265108
-0.00662937
0.00954828
-0.0263955
0.0181116
-0.0454927
0.0260336
-0.0593406
0.0324223
-0.067901
0.0373891
-0.0728785
0.0414325
-0.0759823
0.0450469
-0.0783603
0.0485808
-0.0806124
-0.0829614
0.0522081
0.00315907
-0.00978844
0.010246
-0.0334824
0.0179219
-0.0531685
0.0242715
-0.0656903
0.0289801
-0.0726096
0.0324903
-0.0763887
0.0353729
-0.0788649
0.0380518
-0.0810392
0.0407557
-0.0833164
-0.0857923
0.0435867
0.00352814
-0.0133166
0.0102837
-0.040238
0.0166848
-0.0595696
0.0214137
-0.0704192
0.0246145
-0.0758104
0.026888
-0.0786623
0.0287668
-0.0807437
0.030567
-0.0828394
0.0324263
-0.0851756
-0.0877489
0.0343829
0.00368593
-0.0170025
0.00967036
-0.0462224
0.0146345
-0.0645337
0.0178344
-0.0736191
0.0197156
-0.0776915
0.020912
-0.0798586
0.0218662
-0.0816979
0.0227942
-0.0837675
0.0237642
-0.0861456
-0.0887785
0.0247938
0.00359876
-0.0206013
0.00853001
-0.0511537
0.0120334
-0.0680371
0.013846
-0.0754316
0.0145699
-0.0784155
0.0147938
-0.0800826
0.0148584
-0.0817624
0.0149004
-0.0838095
0.0149499
-0.0861951
0.015016
-0.0888446
-0.000479867
0.000479867
-0.00142017
0.000940306
-0.0025624
0.00114223
-0.00376305
0.00120064
-0.00494022
0.00117717
-0.00604958
0.00110937
-0.00707269
0.00102311
-0.00801138
0.000938691
-0.00888699
0.000875602
0.000857543
-0.00974453
-0.000447785
0.000927651
-0.00132078
0.0018133
-0.00237281
0.00219426
-0.00345991
0.00228774
-0.00449685
0.00221411
-0.00543321
0.00204573
-0.00624226
0.00183216
-0.00691751
0.00161394
-0.00747238
0.00143047
0.00134078
-0.00795562
-0.000388381
0.00131603
-0.00113851
0.00256344
-0.00201831
0.00307405
-0.00288689
0.00315633
-0.0036547
0.00298192
-0.00426096
0.00265198
-0.00466344
0.00223464
-0.00483939
0.00178989
-0.00478919
0.00138027
0.00107768
-0.00452609
-0.000313117
0.00162915
-0.000896361
0.00314668
-0.00153389
0.00371158
-0.00208789
0.00371033
-0.00246426
0.00335829
-0.0025913
0.00277902
-0.0024077
0.00205104
-0.00186004
0.00124223
-0.000917109
0.00043734
-0.000178705
0.000339279
-0.000232892
0.00186204
-0.000617864
0.00353165
-0.000948562
0.00404228
-0.00108582
0.00384758
-0.000927709
0.00320018
-0.000390633
0.00224195
0.00060178
0.00105863
0.00212246
-0.000278444
0.00423934
-0.00167955
-0.00296839
0.00702903
-0.000156029
0.00201807
-0.000317299
0.00369292
-0.000269816
0.0039948
0.000139073
0.0034387
0.00103215
0.0023071
0.0025098
0.000764305
0.00465795
-0.00108953
0.00754742
-0.00316791
0.0112325
-0.00536468
-0.00772797
0.0159921
-8.58465e-05
0.00210392
1.22376e-05
0.00359484
0.000527023
0.00348001
0.00165733
0.00230839
0.00355938
0.000405048
0.00635577
-0.00203209
0.0101263
-0.00486005
0.0149039
-0.0079455
0.0206336
-0.0110944
-0.0148605
0.027766
-1.348e-05
0.0021174
0.000385974
0.00319538
0.00150753
0.00235846
0.00359416
0.000221753
0.00684341
-0.0028442
0.0113742
-0.00656293
0.0172116
-0.0106974
0.0242709
-0.0150048
0.0323821
-0.0192055
-0.0242855
0.0418072
7.55046e-05
0.00204189
0.00087376
0.00239713
0.00278983
0.000442391
0.00612889
-0.00311731
0.0110775
-0.00779278
0.0176625
-0.013148
0.0257468
-0.0187816
0.0350194
-0.0242774
0.0452841
-0.0294703
-0.0349197
0.0559183
0.000206188
0.00154573
0.00450808
0.00940542
0.0162941
0.0249465
0.0349312
0.0457207
0.0570832
0.0673803
-0.0101347
0.000390165
-0.0104953
0.000360641
-0.0108136
0.000318216
-0.0110907
0.000277165
-0.0113296
0.000238852
-0.0115326
0.000202983
-0.0117019
0.000169369
-0.0118398
0.000137896
-0.0119484
0.000108596
-0.0120301
8.17273e-05
-0.012088
5.78124e-05
-0.0121256
3.76698e-05
-0.012148
2.23981e-05
-0.0121613
1.33043e-05
-0.012173
1.1684e-05
-0.0121912
1.81542e-05
-0.0122232
3.20726e-05
-0.0122752
5.19133e-05
-0.0123508
7.56315e-05
9.65307e-05
-0.0082475
0.00068204
-0.00851968
0.000632819
-0.00875854
0.000557075
-0.00896699
0.000485618
-0.00914755
0.000419417
-0.00930221
0.000357642
-0.00943268
0.000299841
-0.00954055
0.000245767
-0.00962741
0.000195458
-0.00969498
0.000149297
-0.00974526
0.00010809
-0.00978083
7.32365e-05
-0.00980517
4.67376e-05
-0.00982295
3.10865e-05
-0.00984015
2.88886e-05
-0.00986382
4.1824e-05
-0.00990133
6.95871e-05
-0.00995924
0.000109816
-0.0100417
0.00015807
0.000200566
-0.00465178
0.000807732
-0.00475622
0.000737261
-0.00484672
0.000647579
-0.00492338
0.00056227
-0.00498821
0.000484254
-0.00504326
0.000412689
-0.00508946
0.00034604
-0.00512757
0.000283878
-0.00515857
0.000226457
-0.00518343
0.000174157
-0.00520302
0.000127675
-0.00521839
8.86015e-05
-0.0052311
5.94525e-05
-0.00524358
4.35598e-05
-0.00525931
4.46176e-05
-0.00528305
6.55719e-05
-0.005321
0.000107533
-0.00538009
0.000168905
-0.00546573
0.000243712
0.000316463
0.000533332
0.000613679
0.000618327
0.000652267
0.000704651
0.000561254
0.00079834
0.000468582
0.00088868
0.000393914
0.000972322
0.000329047
0.00104985
0.000268515
0.00112168
0.000212043
0.00118667
0.000161469
0.0012439
0.000116924
0.00129319
7.8391e-05
0.00133432
4.74714e-05
0.00136692
2.68533e-05
0.00139016
2.03202e-05
0.00140287
3.19072e-05
0.00140322
6.52169e-05
0.00138728
0.000123479
0.00134773
0.000208451
0.00127744
0.000314005
0.000414985
0.00737891
0.000263795
0.00765886
0.000372315
0.0079211
0.000299017
0.00817659
0.00021309
0.00841725
0.000153257
0.00864035
0.000105947
0.00884827
6.05919e-05
0.00904485
1.54633e-05
0.0092277
-2.13811e-05
0.0093927
-4.80791e-05
0.00954057
-6.94833e-05
0.00967104
-8.29992e-05
0.00978381
-8.59124e-05
0.00987908
-7.49526e-05
0.00995759
-4.65973e-05
0.0100171
5.67804e-06
0.0100573
8.33423e-05
0.0100744
0.000191314
0.0100608
0.000327599
0.000480201
0.0164418
-0.000185862
0.0168235
-9.3977e-06
0.0171863
-6.38176e-05
0.0175345
-0.000135097
0.0178651
-0.000177286
0.0181776
-0.000206569
0.0184755
-0.000237343
0.0187586
-0.000267622
0.0190285
-0.00029126
0.0192867
-0.000306264
0.0195296
-0.000312394
0.0197548
-0.000308264
0.0199607
-0.000291791
0.0201459
-0.000260085
0.0203096
-0.000210383
0.0204534
-0.000138088
0.0205766
-3.98614e-05
0.0206776
9.02962e-05
0.0207571
0.000248092
0.000456991
0.0281731
-0.000592902
0.0284819
-0.000318168
0.0288129
-0.000394827
0.0291613
-0.000483538
0.0295049
-0.000520869
0.0298424
-0.000544053
0.0301783
-0.000573263
0.030512
-0.000601375
0.0308409
-0.000620147
0.0311619
-0.000627263
0.031472
-0.000622498
0.0317682
-0.000604416
0.032048
-0.000571556
0.0323091
-0.000521207
0.0325513
-0.000452594
0.0327738
-0.000360638
0.0329804
-0.000246411
0.0331646
-9.39456e-05
0.0333477
6.5059e-05
0.000321193
0.0419695
-0.000755181
0.0421793
-0.000528034
0.0424624
-0.000677948
0.0427808
-0.00080191
0.0431158
-0.000855842
0.0434696
-0.000897902
0.0438406
-0.000944203
0.0442202
-0.000980947
0.0446009
-0.00100092
0.0449778
-0.00100412
0.0453468
-0.000991515
0.045704
-0.000961619
0.046047
-0.00091459
0.0463732
-0.00084738
0.0466838
-0.000763194
0.0469763
-0.000653127
0.047259
-0.000529104
0.0475243
-0.00035928
0.0478013
-0.000211967
6.79221e-05
0.055937
-0.000773887
0.0562452
-0.000836268
0.0566601
-0.00109281
0.0570863
-0.00122815
0.0575308
-0.00130029
0.0580002
-0.00136731
0.0584819
-0.00142588
0.0589641
-0.00146322
0.0594419
-0.00147868
0.059912
-0.00147418
0.0603721
-0.00145163
0.0608194
-0.00140895
0.0612538
-0.00134903
0.0616733
-0.00126682
0.0620818
-0.00117175
0.0624752
-0.00104653
0.0628663
-0.000920173
0.0632449
-0.000737887
0.0636435
-0.000610517
-0.000331588
0.0679994
-0.001393
0.0688346
-0.00167142
0.0695524
-0.00181068
0.0702251
-0.00190078
0.0708963
-0.00197157
0.0715573
-0.00202831
0.072203
-0.00207155
0.0728359
-0.00209615
0.0734598
-0.00210257
0.0740761
-0.00209042
0.0746865
-0.00206211
0.0752913
-0.00201373
0.0758932
-0.0019509
0.0764905
-0.00186411
0.0770884
-0.00176961
0.0776828
-0.00164097
0.078287
-0.00152439
0.0788943
-0.00134514
0.0795233
-0.00123958
-0.000988492
0.0938136
-0.000590479
-0.0946162
0.092965
-0.000822795
0.0921982
-0.00104383
0.0915285
-0.00123114
0.0909381
-0.00138113
0.090409
-0.00149921
0.0899262
-0.00158872
0.0894803
-0.00165025
0.0890653
-0.00168764
0.0886759
-0.00170102
0.0883087
-0.00169488
0.0879602
-0.00166522
0.0876302
-0.00162085
0.0873164
-0.00155041
0.0870217
-0.00147487
0.0867449
-0.00136412
0.0864912
-0.00127073
0.0862628
-0.00111672
0.0860598
-0.00103666
-0.000831725
0.10219
-0.000256357
-0.102524
0.101816
-0.000448016
0.101401
-0.000629158
0.100983
-0.000812918
0.100578
-0.000976982
0.100189
-0.00110957
0.0998122
-0.00121209
0.0994489
-0.00128697
0.0990998
-0.00133857
0.0987646
-0.00136581
0.0984436
-0.00137383
0.098136
-0.00135762
0.0978429
-0.00132778
0.0975639
-0.00127136
0.0973009
-0.00121191
0.0970544
-0.00111761
0.0968261
-0.00104248
0.0966202
-0.000910787
0.0964311
-0.000847501
-0.000674522
0.108629
6.61048e-05
-0.108951
0.108358
-0.000177462
0.108106
-0.000376628
0.107856
-0.000562868
0.107609
-0.000729693
0.107366
-0.000866872
0.107128
-0.000974348
0.106895
-0.00105394
0.106667
-0.00111087
0.106445
-0.00114376
0.10623
-0.00115879
0.106023
-0.0011499
0.105824
-0.00112922
0.105635
-0.00108217
0.105457
-0.00103429
0.105292
-0.000952099
0.10514
-0.000890584
0.105004
-0.000774721
0.104879
-0.000723245
-0.000569903
0.114192
0.000307421
-0.114433
0.113996
1.83196e-05
0.113829
-0.000209725
0.113668
-0.000402062
0.113508
-0.000569243
0.11335
-0.000709086
0.113197
-0.000821265
0.113048
-0.000905352
0.112904
-0.000966912
0.112765
-0.00100425
0.112631
-0.00102501
0.112503
-0.00102198
0.112383
-0.00100904
0.112271
-0.000969615
0.112168
-0.000931663
0.112075
-0.000859134
0.111993
-0.000809086
0.111924
-0.000704876
0.111864
-0.000663179
-0.000523212
0.119498
0.000445687
-0.119637
0.119372
0.000144369
0.119257
-9.4876e-05
0.119149
-0.000293209
0.119039
-0.000459672
0.11893
-0.000599954
0.118824
-0.000714911
0.118721
-0.000802438
0.118622
-0.000868126
0.118527
-0.000909503
0.118438
-0.000935615
0.118354
-0.000938041
0.118277
-0.000932439
0.118208
-0.000900195
0.118148
-0.000871481
0.118096
-0.00080783
0.118055
-0.000768029
0.118025
-0.000674182
0.118002
-0.000640928
-0.00051282
0.124966
0.000527053
-0.125047
0.124876
0.000234148
0.124786
-5.01117e-06
0.124698
-0.000205581
0.12461
-0.000371855
0.124522
-0.000511058
0.124433
-0.000626612
0.124347
-0.000716077
0.124264
-0.000785024
0.124184
-0.000829945
0.12411
-0.000860882
0.12404
-0.00086846
0.123977
-0.000869616
0.123921
-0.000844388
0.123874
-0.000824102
0.123835
-0.000769233
0.123806
-0.000738455
0.123787
-0.000655058
0.123775
-0.0006289
-0.000513335
0.130688
0.000594955
-0.130756
0.130606
0.000316774
0.13052
8.03427e-05
0.130431
-0.000116533
0.130342
-0.000282436
0.130251
-0.000420043
0.130159
-0.000535072
0.130069
-0.000625464
0.12998
-0.000696919
0.129896
-0.000745142
0.129815
-0.000780498
0.12974
-0.0007932
0.129671
-0.000800563
0.129609
-0.000782461
0.129555
-0.000769792
0.129509
-0.000723999
0.129472
-0.000701103
0.129446
-0.000628771
0.129425
-0.000608543
-0.000506766
0.136487
0.000665757
-0.136558
0.136401
0.000403174
0.136307
0.000173923
0.136208
-1.76727e-05
0.136107
-0.000181602
0.136004
-0.000317059
0.1359
-0.000430835
0.135796
-0.000521517
0.135694
-0.000594899
0.135595
-0.000646353
0.135501
-0.000685844
0.135411
-0.000703861
0.135328
-0.000717026
0.135252
-0.000706362
0.135183
-0.000700669
0.135123
-0.000664445
0.13507
-0.00064854
0.13503
-0.000588039
0.134994
-0.000572865
-0.000486
0.142038
0.000735939
-0.142109
0.141951
0.000490143
0.141854
0.000270873
0.141753
8.40571e-05
0.141645
-7.39188e-05
0.141535
-0.00020668
0.141422
-0.0003185
0.14131
-0.000409039
0.141199
-0.000483756
0.141091
-0.000538222
0.140986
-0.000581471
0.140887
-0.000604884
0.140794
-0.000623451
0.140708
-0.000620436
0.140628
-0.000621168
0.140559
-0.000594848
0.140495
-0.000585243
0.140444
-0.000537065
0.140398
-0.000526306
-0.000454936
0.147033
0.000787461
-0.147084
0.146964
0.000558784
0.146884
0.000350909
0.146796
0.00017193
0.146702
2.03469e-05
0.146602
-0.000107225
0.1465
-0.000216316
0.146397
-0.00030573
0.146294
-0.000380793
0.146193
-0.000437596
0.146096
-0.000483862
0.146003
-0.000512234
0.145915
-0.000535538
0.145834
-0.00053983
0.14576
-0.000546288
0.145694
-0.000529569
0.145635
-0.000525567
0.145587
-0.000489421
0.145543
-0.000482536
-0.000426227
0.151349
0.000790585
-0.151352
0.151328
0.000579801
0.151294
0.000385542
0.151248
0.00021728
0.151194
7.42284e-05
0.151133
-4.60573e-05
0.151067
-0.000150367
0.150999
-0.000237057
0.150929
-0.000310933
0.15086
-0.000368522
0.150792
-0.000416379
0.150728
-0.000448337
0.150668
-0.000475137
0.150613
-0.000485408
0.150564
-0.000496464
0.150522
-0.000487959
0.150485
-0.000488619
0.150459
-0.000462973
0.150435
-0.000459367
-0.000416257
0.155219
0.00071507
-0.155143
0.155273
0.000524899
0.155311
0.000347879
0.155334
0.000194046
0.155346
6.28193e-05
0.155348
-4.80418e-05
0.155342
-0.000144719
0.155331
-0.00022607
0.155316
-0.000296322
0.1553
-0.00035216
0.155283
-0.000399404
0.155267
-0.000432499
0.155253
-0.00046083
0.155242
-0.000474612
0.155234
-0.00048856
0.155232
-0.000485673
0.155233
-0.000489668
0.155242
-0.000471667
0.155253
-0.00047059
-0.000437377
0.159269
0.00055006
-0.159104
0.159409
0.000385029
0.159527
0.000229918
0.159627
9.45155e-05
0.159711
-2.15268e-05
0.159783
-0.000120039
0.159844
-0.000206078
0.159897
-0.000278946
0.159944
-0.000342667
0.159985
-0.000393589
0.160023
-0.000437501
0.160059
-0.000468614
0.160094
-0.00049604
0.16013
-0.000510178
0.160166
-0.000524929
0.160205
-0.000524362
0.160246
-0.000530099
0.16029
-0.000516167
0.160336
-0.000516743
-0.00048943
0.16434
0.000322296
-0.164112
0.164538
0.000186386
0.164711
5.6957e-05
0.164863
-5.68648e-05
0.164997
-0.000155549
0.165116
-0.000238951
0.165222
-0.000312229
0.165317
-0.000373952
0.165403
-0.000428663
0.165481
-0.000471959
0.165554
-0.000510187
0.165622
-0.000536597
0.165687
-0.000560964
0.165749
-0.000572696
0.165811
-0.000586375
0.165872
-0.000585268
0.165933
-0.000591293
0.165995
-0.000578384
0.166058
-0.000579781
-0.000555077
0.171018
9.37376e-05
-0.17079
0.171217
-1.22695e-05
0.171389
-0.000115471
0.17154
-0.000207067
0.171672
-0.000287619
0.171788
-0.000355457
0.171891
-0.000415354
0.171982
-0.000465051
0.172063
-0.00050977
0.172136
-0.000544319
0.172201
-0.000575781
0.172261
-0.000596289
0.172317
-0.000616508
0.172369
-0.000624585
0.172418
-0.000636156
0.172466
-0.000633226
0.172514
-0.000638651
0.172561
-0.000625459
0.172608
-0.000627088
-0.000603659
0.179146
-7.10737e-05
-0.178981
0.179285
-0.000151506
0.1794
-0.000230036
0.179494
-0.000301212
0.179571
-0.000364901
0.179634
-0.000418291
0.179685
-0.000465702
0.179724
-0.000504249
0.179754
-0.000539496
0.179775
-0.000565878
0.17979
-0.000590796
0.1798
-0.000605858
0.179805
-0.000621949
0.179807
-0.000626799
0.179807
-0.000636113
0.179806
-0.000631836
0.179804
-0.000636384
0.179802
-0.000623517
0.1798
-0.000625085
-0.000603666
0.187737
-0.000146327
-0.187662
0.18779
-0.000204613
0.187822
-0.000261921
0.187835
-0.000314557
0.187833
-0.000362523
0.187817
-0.000402641
0.18779
-0.0004385
0.187753
-0.000467098
0.187707
-0.000493629
0.187654
-0.000512919
0.187595
-0.000531778
0.187532
-0.000542437
0.187464
-0.000554697
0.187395
-0.00055745
0.187323
-0.000564628
0.187252
-0.000560277
0.187179
-0.000563899
0.187109
-0.000552841
0.187038
-0.000554203
-0.000536501
0.195474
-0.000143486
-0.195477
0.195452
-0.000182424
0.19541
-0.000220379
0.195351
-0.000255143
0.195276
-0.000287303
0.195187
-0.000314233
0.195087
-0.000338461
0.194978
-0.000357516
0.19486
-0.000375373
0.194735
-0.000388095
0.194604
-0.000400847
0.194469
-0.00040774
0.19433
-0.000416075
0.194191
-0.000417564
0.194048
-0.000422482
0.193907
-0.000419102
0.193765
-0.000421632
0.193626
-0.000413641
0.193486
-0.000414629
-0.000402109
0.201277
-8.47441e-05
-0.201335
0.201201
-0.000106406
0.201106
-0.000125636
0.200994
-0.000142723
0.200865
-0.000158665
0.200723
-0.000172095
0.200569
-0.000184215
0.200405
-0.000193723
0.200232
-0.000202642
0.200053
-0.00020899
0.199867
-0.000215347
0.199678
-0.000218781
0.199485
-0.000222888
0.199291
-0.000223619
0.199095
-0.000225965
0.1989
-0.000224284
0.198704
-0.000225372
0.198512
-0.000221436
0.198319
-0.000221676
-0.000215338
0.204399
-0.204484
0.204293
0.204167
0.204024
0.203866
0.203694
0.203509
0.203316
0.203113
0.202904
0.202689
0.20247
0.202247
0.202023
0.201797
0.201573
0.201348
0.201126
0.200905
0.0928202
0.0139673
-0.0917715
0.093862
0.023752
0.0949196
0.0333252
0.0959551
0.0425512
0.0970019
0.0511613
0.0979722
0.0591458
0.098651
0.0662908
0.0992171
0.0720603
0.0971052
0.0780143
0.0772145
0.096103
0.0130497
-0.0951854
0.0970583
0.0227967
0.0980849
0.0322986
0.0991637
0.0414724
0.100233
0.0500916
0.101461
0.0579182
0.102281
0.0654707
0.103624
0.0707172
0.103681
0.0779573
0.0783711
0.0996846
0.0122521
-0.098887
0.100583
0.0218981
0.101562
0.03132
0.102688
0.0403457
0.103757
0.0490235
0.10513
0.0565444
0.106202
0.0643991
0.107638
0.0692811
0.108909
0.0766863
0.0783289
0.10338
0.0115403
-0.102668
0.104273
0.0210055
0.10526
0.0303324
0.106468
0.039138
0.107641
0.0478508
0.109077
0.0551085
0.110447
0.0630283
0.111802
0.0679268
0.113491
0.0749972
0.0773865
0.107007
0.0108761
-0.106343
0.107933
0.0200793
0.109014
0.0292517
0.110344
0.0378083
0.111739
0.0464557
0.113266
0.0535814
0.11491
0.0613849
0.116361
0.066475
0.118177
0.0731818
0.0759265
0.110385
0.0102214
-0.10973
0.111372
0.0190921
0.11261
0.0280131
0.114111
0.0363079
0.115798
0.0447689
0.117549
0.0518296
0.119494
0.0594405
0.121273
0.0646956
0.123263
0.0711918
0.0741428
0.113351
0.00954401
-0.112673
0.114423
0.0180202
0.11585
0.026586
0.117573
0.0345848
0.119584
0.0427574
0.121698
0.0497156
0.124026
0.0571132
0.12627
0.0624512
0.128618
0.0688436
0.0720051
0.11582
0.00882398
-0.1151
0.116994
0.0168461
0.11861
0.0249697
0.120585
0.0326096
0.122929
0.0404133
0.125468
0.0471773
0.128251
0.0543293
0.131026
0.0596766
0.133919
0.0659506
0.0693664
0.117835
0.00805168
-0.117063
0.119114
0.0155677
0.120897
0.0231867
0.123108
0.0303977
0.125759
0.0377625
0.128698
0.044239
0.131958
0.0510685
0.135281
0.0563544
0.138824
0.0624076
0.0660813
0.119613
0.00722711
-0.118788
0.120977
0.0142036
0.122884
0.0212792
0.125273
0.0280091
0.128164
0.0348713
0.131416
0.040987
0.135096
0.0473887
0.138919
0.052532
0.14309
0.0582357
0.0620877
0.121538
0.00635939
-0.120671
0.122952
0.0127898
0.124928
0.0193033
0.127411
0.0255268
0.130445
0.0318372
0.133891
0.0375406
0.137857
0.0434225
0.142059
0.0483303
0.146715
0.0535794
0.0574506
0.124103
0.00547309
-0.123217
0.125523
0.0113697
0.127511
0.0173156
0.130011
0.0230265
0.133088
0.0287601
0.136612
0.0340167
0.140702
0.0393326
0.145121
0.0439111
0.150047
0.0486537
0.0523544
0.127739
0.00461351
-0.126879
0.12913
0.00997862
0.131091
0.0153539
0.133572
0.0205462
0.136632
0.0257002
0.140166
0.0304826
0.144263
0.0352349
0.148767
0.0394078
0.153775
0.0436458
0.0470246
0.132598
0.00382196
-0.131806
0.133946
0.00863054
0.135881
0.013419
0.138361
0.018066
0.141419
0.0226418
0.144984
0.0269182
0.149089
0.0311291
0.153648
0.0348496
0.158685
0.0386083
0.0415978
0.138377
0.0031185
-0.137674
0.139699
0.00730847
0.141649
0.0114691
0.1442
0.0155149
0.14735
0.0194921
0.151051
0.0232175
0.155293
0.0268873
0.160013
0.0301291
0.165209
0.0334128
0.0360168
0.144367
0.0024846
-0.143733
0.145706
0.00596936
0.147739
0.00943586
0.15045
0.0128035
0.153815
0.0161278
0.157791
0.0192416
0.162353
0.0223244
0.167426
0.0250562
0.173017
0.0278224
0.0300522
0.149771
0.00187109
-0.149158
0.151175
0.00456556
0.153351
0.00725961
0.156285
0.00987028
0.159949
0.0124631
0.164296
0.0148945
0.169311
0.0173096
0.174894
0.0194738
0.18107
0.0216457
0.0234608
0.15411
0.00124172
-0.153481
0.155596
0.00307953
0.157928
0.00492761
0.161084
0.00671372
0.165052
0.00849584
0.169774
0.010172
0.175248
0.0118357
0.181372
0.0133504
0.188169
0.0148484
0.0161527
0.157251
0.000611711
-0.156621
0.158787
0.00154344
0.161228
0.00248615
0.164547
0.00339484
0.168739
0.00430374
0.17375
0.005161
0.179576
0.00600979
0.186134
0.00679267
0.193425
0.00755721
0.00824239
0.158993
-0.158381
0.160536
0.163022
0.166417
0.170721
0.175882
0.181892
0.188684
0.196242
0.0433515
0.0525064
-0.0463023
-0.0495556
0.0371987
0.0511174
-0.0449646
0.0314674
0.0502136
-0.0444823
0.0260608
0.0498837
-0.044477
0.020859
0.0500348
-0.044833
0.0157921
0.0506506
-0.0455837
0.0108391
0.0516053
-0.0466524
0.00611165
0.051791
-0.0470636
0.00209046
0.0470794
-0.0430582
0.0272443
-0.0251538
0.0416285
0.0586636
-0.0477858
0.0356284
0.0571175
0.0299356
0.0559064
0.0245841
0.0552352
0.0194939
0.055125
0.01458
0.0555645
0.00982207
0.0563632
0.00536509
0.056248
0.00172249
0.050722
0.0289668
0.0390014
0.0645065
-0.0448443
0.033272
0.0628469
0.0277685
0.0614099
0.0225699
0.0604338
0.0176537
0.0600412
0.0129568
0.0602615
0.00847466
0.0608453
0.00439252
0.0603302
0.00125065
0.0538639
0.0302174
0.0352739
0.0699883
-0.0407556
0.0299465
0.0681743
0.0248002
0.0665562
0.0199086
0.0653254
0.0152838
0.0646659
0.010897
0.0646483
0.00678455
0.0649578
0.00319276
0.0639219
0.000673827
0.0563828
0.0308913
0.0305068
0.0750216
-0.0355401
0.0256637
0.0730173
0.0210006
0.0712193
0.0165575
0.0697685
0.0123535
0.06887
0.00838809
0.0686137
0.00474142
0.0686045
0.00176059
0.0669028
-3.00079e-05
0.0581734
0.0308613
0.0247136
0.079459
-0.029151
0.0204753
0.0772556
0.0164123
0.0752823
0.0125375
0.0736432
0.00886842
0.0725391
0.00543484
0.0720473
0.00236478
0.0716745
-1.77511e-06
0.0692693
-0.000699922
0.0588715
0.0301613
0.0180087
0.0831577
-0.0217074
0.0144857
0.0807786
0.01112
0.0786481
0.00791254
0.0768507
0.00487835
0.0755733
0.00208668
0.0748389
-0.000248614
0.0740098
-0.00158969
0.0706104
-0.00141062
0.0586925
0.0287507
0.0105137
0.085999
-0.0133549
0.00780275
0.0834895
0.00522266
0.0812282
0.00276968
0.0793036
0.000462705
0.0778802
-0.00159135
0.076893
-0.0030685
0.075487
-0.00341391
0.0709558
-0.00211448
0.057393
0.0266362
0.00238618
0.0879415
-0.00432864
0.0005683
0.0853074
-0.00115791
0.0829544
-0.00281164
0.0809574
-0.0043371
0.0794057
-0.00555708
0.078113
-0.00607627
0.0760062
-0.00526271
0.0701423
-0.00275942
0.0548898
0.0238768
-0.00616395
0.00526081
-0.00705171
-0.00790685
-0.00871191
-0.00938877
-0.00969129
-0.00911675
-0.00701162
-0.00327555
0.0327265
0.00309206
-0.0358186
0.0295113
0.0032152
0.0261531
0.00335819
0.0226309
0.00352219
0.0189161
0.00371485
0.0149742
0.00394185
0.0107855
0.00418873
0.00643521
0.00435028
0.00238041
0.00405481
0.00238041
0.0333259
0.00631754
-0.0365514
0.0299928
0.00654829
0.0265319
0.00681908
0.022922
0.00713217
0.0191337
0.00750311
0.0151316
0.00794397
0.0108924
0.00842791
0.00649788
0.00874481
0.00241095
0.00814174
0.00479136
0.0344633
0.00979692
-0.0379427
0.0309055
0.0101061
0.0272485
0.0104761
0.0234703
0.0109103
0.019541
0.0114325
0.015423
0.0120619
0.0110901
0.0127608
0.00661784
0.0132171
0.00245955
0.0123
0.0072509
0.0360204
0.0136235
-0.039847
0.0321536
0.0139729
0.0282256
0.0144041
0.0242147
0.0149212
0.0200901
0.0155571
0.0158124
0.0163396
0.0113507
0.0172225
0.00677247
0.0177954
0.00252247
0.01655
0.00977337
0.0378345
0.0178557
-0.0420667
0.0336032
0.0182042
0.0293539
0.0186535
0.0250671
0.019208
0.0207118
0.0199124
0.0162459
0.0208054
0.0116341
0.0218343
0.00693552
0.0224939
0.00258662
0.0208989
0.01236
0.0397232
0.0225118
-0.0443793
0.0351014
0.022826
0.0305052
0.0232497
0.0259215
0.0237916
0.0213198
0.0245141
0.0166556
0.0254696
0.0118893
0.0266007
0.00707309
0.0273101
0.00263616
0.0253359
0.0149961
0.0414713
0.0276016
-0.0465611
0.0364573
0.0278399
0.0315241
0.0281829
0.0266594
0.0286563
0.0218247
0.0293489
0.0169727
0.0303216
0.0120642
0.0315092
0.00714966
0.0322246
0.00265432
0.0298312
0.0176505
0.0429644
0.033109
-0.0484717
0.0375431
0.0332612
0.0322832
0.0334428
0.027162
0.0337775
0.0221236
0.0343872
0.0171161
0.0353291
0.0121
0.0365254
0.00712695
0.0371976
0.00262361
0.0343345
0.0202741
0.0437664
0.0391447
-0.0498021
0.0380234
0.0390042
0.032577
0.0388892
0.027292
0.0390625
0.0221114
0.0395678
0.0170036
0.0404369
0.0119356
0.0415934
0.00696562
0.0421676
0.00252676
0.0387734
0.0228008
0.0439728
-0.0511303
0.0380124
0.0324193
0.0270048
0.0217395
0.0165927
0.0115338
0.00663782
0.00235301
0.0394489
-0.000103855
0.0395524
-0.000103449
0.0396524
-0.000100067
0.0397449
-9.24466e-05
0.0398262
-8.12868e-05
0.0398929
-6.67427e-05
0.0399413
-4.83896e-05
0.0399668
-2.54869e-05
0.0399636
3.12998e-06
0.0399299
3.3722e-05
0.0398586
7.13046e-05
0.0397425
0.00011607
0.0395735
0.000169046
0.0393419
0.000231618
0.0390364
0.000305519
0.0386435
0.00039286
0.0381472
0.000496336
0.0375281
0.00061906
0.0367627
0.000765388
0.000944131
0.0403204
-0.000209309
0.0404231
-0.000206107
0.0405209
-0.000197824
0.0406105
-0.000182087
0.0406889
-0.000159643
0.0407525
-0.000130355
0.0407974
-9.33145e-05
0.040819
-4.70607e-05
0.0408122
9.88284e-06
0.0407739
7.20629e-05
0.0406972
0.000147995
0.0405749
0.00023839
0.0403986
0.000345334
0.0401586
0.000471605
0.0398434
0.000620688
0.0394395
0.000796791
0.0389305
0.00100536
0.038297
0.00125249
0.0375155
0.00154693
0.00190823
0.0420342
-0.000305545
0.0421286
-0.000300475
0.0422184
-0.000287666
0.0423
-0.000263685
0.0423699
-0.000229568
0.0424246
-0.000185057
0.04246
-0.000128721
0.0424712
-5.81827e-05
0.0424544
2.66714e-05
0.0424043
0.000122116
0.0423145
0.000237846
0.0421774
0.000375488
0.0419845
0.000538239
0.0417258
0.000730305
0.0413895
0.000956949
0.0409618
0.00122446
0.0404261
0.00154113
0.0397627
0.00191587
0.0389483
0.00236134
0.00291384
0.0445284
-0.000382719
0.0446035
-0.000375554
0.0446742
-0.000358394
0.0447367
-0.000326184
0.0447872
-0.000280036
0.0448218
-0.000219667
0.0448362
-0.000143143
0.0448253
-4.72822e-05
0.0447872
6.47092e-05
0.0447136
0.000195782
0.0445981
0.000353331
0.0444332
0.000540377
0.0442101
0.000761358
0.0439184
0.001022
0.043546
0.00132935
0.0430786
0.00169188
0.042499
0.00212072
0.0417869
0.00262795
0.0409206
0.00322768
0.00398741
0.0477189
-0.000423393
0.0477571
-0.000413778
0.0477908
-0.000392015
0.047816
-0.000351443
0.047829
-0.00029298
0.0478256
-0.000216338
0.0478016
-0.000119116
0.0477491
5.25266e-06
0.0476713
0.00014246
0.0475553
0.000311748
0.0473954
0.000513326
0.0471836
0.000752132
0.046911
0.00103399
0.0465666
0.00136637
0.046138
0.00175792
0.0456102
0.00221972
0.0449659
0.00276502
0.0441824
0.00341148
0.043242
0.00416803
0.00516274
0.0515074
-0.000402682
0.0514836
-0.000389927
0.051454
-0.000362456
0.0514155
-0.000312972
0.0513643
-0.000241774
0.0512959
-0.000147899
0.0512039
-2.71509e-05
0.0510932
0.000115941
0.0509467
0.000288982
0.0507616
0.000496877
0.0505309
0.00074402
0.0502462
0.00103685
0.0498983
0.00138189
0.0494754
0.00178926
0.0489651
0.00226822
0.0483501
0.00283468
0.0476146
0.00350056
0.0467304
0.00429568
0.0456909
0.0052075
0.00647437
0.0557922
-0.000287634
0.0556726
-0.000270307
0.0555451
-0.000234971
0.055408
-0.000175837
0.055258
-9.17742e-05
0.0550903
1.97786e-05
0.0549048
0.000158393
0.0546911
0.000329652
0.0544436
0.00053639
0.0541563
0.00078423
0.0538222
0.00107813
0.053432
0.00142701
0.0529772
0.0018367
0.0524443
0.00232219
0.051823
0.00288955
0.0510913
0.00356631
0.0502372
0.00435467
0.0492148
0.00531811
0.0480317
0.00639062
0.00794494
0.0604803
-3.25248e-05
0.0602208
-1.08217e-05
0.0599515
3.43254e-05
0.0596729
0.000102762
0.0593832
0.00019795
0.0590784
0.000324546
0.0587516
0.000485205
0.0583969
0.000684299
0.0580088
0.000924481
0.0575799
0.00121322
0.0571036
0.00155436
0.0565691
0.00196154
0.0559694
0.00243637
0.0552866
0.003005
0.0545165
0.0036596
0.0536264
0.00445642
0.052627
0.00535412
0.0514444
0.0065007
0.0501337
0.00770135
0.00960685
0.0654976
0.000407381
0.0650417
0.000445044
0.0645779
0.000498126
0.0641097
0.000570997
0.0636341
0.000673587
0.0631439
0.000814666
0.0626326
0.000996536
0.0620936
0.00122331
0.0615221
0.00149594
0.0609097
0.00182563
0.0602516
0.00221254
0.0595335
0.00267955
0.0587535
0.00321642
0.0578844
0.00387406
0.0569355
0.00460852
0.0558442
0.00554773
0.0546621
0.00653621
0.0532292
0.00793365
0.0517528
0.00917775
0.0115575
0.0708
0.00114967
0.0700767
0.00116832
0.0693635
0.00121137
0.0686572
0.00127726
0.0679488
0.00138202
0.067227
0.00153647
0.066485
0.0017385
0.0657172
0.00199115
0.0649207
0.00229246
0.0640865
0.00265977
0.0632122
0.0030869
0.0622815
0.00361024
0.0612995
0.00419842
0.0602336
0.00493995
0.0591167
0.00572537
0.0578636