/*--------------------------------*- C++ -*----------------------------------*\
| =========                 |                                                 |
| \\      /  F ield         | OpenFOAM: The Open Source CFD Toolbox           |
|  \\    /   O peration     | Version:  4.1                                   |
|   \\  /    A nd           | Web:      www.OpenFOAM.org                      |
|    \\/     M anipulation  |                                                 |
\*---------------------------------------------------------------------------*/
FoamFile
{
    version     2.0;
    format      ascii;
    class       volVectorField;
    location    "14";
    object      U;
}
// * * * * * * * * * * * * * * * * * * * * * * * * * * * * * * * * * * * * * //

dimensions      [0 1 -1 0 0 0 0];

internalField   nonuniform List<vector> 
2000
(
(-0.0250715 0.0228694 1.25691e-20)
(0.0113988 0.0189398 0)
(0.120437 0.0027382 1.62861e-20)
(0.284234 -0.015399 6.39168e-21)
(0.483566 -0.0289035 -1.18131e-20)
(0.695691 -0.0357114 -1.34134e-20)
(0.901356 -0.0355998 4.18999e-21)
(1.08233 -0.0332737 0)
(1.25154 -0.0234187 -2.33536e-21)
(1.35437 -0.0189615 0)
(-0.0174289 0.0155363 -6.14175e-21)
(0.0570783 -0.000775463 4.64606e-21)
(0.222064 -0.0198366 -1.98518e-20)
(0.445533 -0.0336234 -2.35706e-20)
(0.691832 -0.0382859 -7.77815e-22)
(0.928121 -0.0350256 4.18252e-21)
(1.1334 -0.0268905 -4.68203e-21)
(1.29925 -0.0185604 -3.15529e-21)
(1.43153 -0.00754641 2.33525e-21)
(1.50925 -0.00859631 2.81223e-21)
(-0.00277671 0.00655161 7.59317e-21)
(0.124847 -0.0212052 -7.11227e-21)
(0.356821 -0.0378415 1.00653e-20)
(0.636831 -0.0415364 -1.27205e-21)
(0.910826 -0.0344715 6.6847e-21)
(1.14392 -0.0220022 5.33466e-21)
(1.32429 -0.0090265 4.16134e-21)
(1.45552 0.000948371 3.15523e-21)
(1.54957 0.00872033 2.01781e-21)
(1.61565 0.00812415 -1.16615e-21)
(0.0211119 -0.00349475 -6.4715e-22)
(0.217559 -0.0389932 -8.38536e-21)
(0.520079 -0.0461186 0)
(0.839789 -0.0357228 8.02189e-21)
(1.11355 -0.017921 -8.76757e-21)
(1.31876 -0.000364787 0)
(1.46072 0.0129217 0)
(1.55617 0.0205702 0)
(1.6252 0.0252069 -2.0179e-21)
(1.67326 0.0224813 1.54292e-21)
(0.0561947 -0.0133027 2.25408e-20)
(0.334764 -0.0494661 -1.03836e-22)
(0.699284 -0.0405578 7.79099e-21)
(1.03195 -0.0161607 4.81602e-21)
(1.28024 0.00795495 4.47154e-21)
(1.44517 0.0256326 3.1238e-21)
(1.54982 0.0358292 0)
(1.61954 0.0401082 1.13435e-21)
(1.67262 0.0410759 -1.94573e-21)
(1.71972 0.0367499 1.88389e-21)
(0.103552 -0.0208581 -3.70135e-20)
(0.471049 -0.0478149 1.55154e-21)
(0.877001 -0.019819 -1.53378e-20)
(1.19595 0.0145385 1.30809e-20)
(1.4046 0.0395852 -1.23589e-20)
(1.52946 0.0537156 4.28096e-21)
(1.60543 0.0594414 0)
(1.65905 0.0599381 -1.13443e-21)
(1.70628 0.057719 4.21104e-22)
(1.75303 0.0529253 -3.29034e-21)
(0.162815 -0.0236422 0)
(0.616101 -0.0307954 0)
(1.03734 0.0146966 -8.09461e-21)
(1.32409 0.0532117 7.53554e-21)
(1.49007 0.0747688 -3.74708e-21)
(1.5815 0.0832863 3.51798e-21)
(1.6379 0.0839877 1.84149e-21)
(1.68322 0.080754 -1.74062e-21)
(1.72833 0.0757891 1.56669e-21)
(1.77686 0.0701844 -7.53527e-22)
(0.231603 -0.0191606 7.98986e-21)
(0.757231 0.00211582 0)
(1.17034 0.0602374 -3.5651e-21)
(1.41619 0.0973076 1.31472e-20)
(1.54312 0.112302 -6.94072e-21)
(1.60931 0.114131 0)
(1.65367 0.109688 0)
(1.69522 0.102766 0)
(1.74066 0.095268 3.39408e-21)
(1.79083 0.0887255 -3.22624e-21)
(0.305548 -0.00561636 -4.22747e-21)
(0.883046 0.0489642 -3.38404e-22)
(1.27188 0.113777 -4.68223e-21)
(1.47547 0.144887 1.34138e-21)
(1.56983 0.151361 1.34814e-21)
(1.61834 0.146042 1.04591e-21)
(1.65591 0.136452 0)
(1.69636 0.125894 5.72117e-22)
(1.74267 0.116029 3.65709e-21)
(1.79418 0.107814 -2.72538e-21)
(0.378976 0.017645 0)
(0.985785 0.106411 -3.18552e-21)
(1.34147 0.172377 0)
(1.50598 0.194368 -9.15887e-22)
(1.57494 0.191211 -8.35683e-22)
(1.6118 0.178609 -1.86176e-22)
(1.646 0.163906 0)
(1.68657 0.149717 -5.72173e-22)
(1.73392 0.137431 -7.89726e-22)
(1.78655 0.126906 -1.21419e-21)
(-0.00489192 0.00467464 0)
(-0.0197856 0.00877207 -3.8755e-22)
(-0.0408081 0.0100152 0)
(-0.0605754 0.00986327 -5.23965e-22)
(-0.0774793 0.00901124 -1.68094e-22)
(-0.0912981 0.00785142 2.97254e-22)
(-0.102168 0.00664118 -2.79938e-22)
(-0.110466 0.00556939 2.56201e-22)
(-0.116764 0.0048007 7.27639e-24)
(-0.121978 0.00449564 2.12828e-22)
(-0.00602443 0.0136483 -1.19322e-21)
(-0.0212585 0.0256239 7.56953e-22)
(-0.0412641 0.029268 -7.8829e-22)
(-0.0593587 0.0287763 3.49544e-22)
(-0.0741801 0.0261801 1.68269e-21)
(-0.0855666 0.0226289 -6.23363e-22)
(-0.0936629 0.0188803 0)
(-0.0988112 0.0155132 -2.55344e-22)
(-0.101467 0.0130497 -2.30599e-22)
(-0.102756 0.0120304 0)
(-0.00817799 0.0215393 7.95768e-22)
(-0.0240513 0.0404946 0)
(-0.0420653 0.0462457 2.43265e-21)
(-0.0568821 0.0452985 -3.06243e-21)
(-0.0675849 0.0408624 7.41128e-22)
(-0.0741525 0.0347473 0)
(-0.0767666 0.0281494 0)
(-0.0757572 0.02204 0)
(-0.0713294 0.0173756 1.84415e-21)
(-0.0644287 0.0152978 -1.75268e-21)
(-0.0111211 0.0278229 0)
(-0.0278284 0.0523368 -1.94968e-21)
(-0.0428952 0.0596364 3.6178e-21)
(-0.0527959 0.058019 -1.68664e-21)
(-0.0572425 0.0516377 1.53305e-21)
(-0.0564451 0.0428038 -4.22208e-21)
(-0.0506662 0.0330068 1.30856e-22)
(-0.0403539 0.0234958 2.35454e-21)
(-0.0256037 0.0158237 1.84023e-21)
(-0.00529032 0.0129521 -2.54614e-21)
(-0.0145716 0.0322381 2.12211e-21)
(-0.0320526 0.0604062 -4.51551e-21)
(-0.0430331 0.0683784 -1.34852e-22)
(-0.0460466 0.0657277 7.91175e-23)
(-0.0415568 0.0573076 1.56199e-21)
(-0.0300912 0.045768 -4.72486e-21)
(-0.0120674 0.0327099 0)
(0.0119163 0.019431 -1.22937e-21)
(0.0420205 0.00802832 1.01582e-21)
(0.080736 0.0035786 -3.36804e-21)
(-0.0182426 0.0347554 -1.96722e-22)
(-0.035942 0.0642495 4.84329e-21)
(-0.041143 0.0716479 2.14604e-21)
(-0.034465 0.0673641 2.33685e-21)
(-0.0171439 0.0567555 1.77108e-21)
(0.00992643 0.04275 1.59547e-21)
(0.0460565 0.0269947 0)
(0.0901459 0.0106025 1.22929e-21)
(0.141277 -0.00473345 2.53031e-21)
(0.209426 -0.0113611 -1.30442e-21)
(-0.0218551 0.0355007 2.77986e-23)
(-0.038364 0.0636378 2.86387e-21)
(-0.0350333 0.0689037 0)
(-0.0144039 0.0620848 -3.97303e-21)
(0.0215268 0.0489963 4.09198e-21)
(0.0713488 0.0328871 0)
(0.133752 0.0155974 0)
(0.206781 -0.00169714 0)
(0.28449 -0.0195261 -2.15087e-21)
(0.395095 -0.0265408 -3.28355e-21)
(-0.0250843 0.0346301 -3.50699e-21)
(-0.0376869 0.0586147 3.2851e-21)
(-0.021269 0.059958 5.93951e-21)
(0.0196822 0.0495892 4.38281e-22)
(0.0823538 0.033837 4.43845e-21)
(0.164088 0.0162528 3.83356e-21)
(0.261775 -0.00101892 3.26298e-21)
(0.371919 -0.0160076 2.6891e-21)
(0.479583 -0.0331875 2.15061e-21)
(0.638584 -0.0361667 -1.16842e-21)
(-0.0273561 0.0322717 -1.30758e-20)
(-0.031548 0.0493278 -3.25866e-21)
(0.00498484 0.045114 -1.20926e-20)
(0.0753815 0.0307261 -5.17802e-21)
(0.175027 0.0129189 3.63804e-22)
(0.298129 -0.0045197 -3.49219e-21)
(0.437659 -0.019335 3.67031e-21)
(0.58583 -0.0293788 -2.68876e-21)
(0.724212 -0.0412505 2.23939e-21)
(0.912833 -0.0359006 -3.09857e-21)
(-0.0277903 0.0284049 9.04085e-21)
(-0.0165864 0.0359622 0)
(0.049961 0.0254166 6.65839e-21)
(0.161263 0.00778573 4.06677e-25)
(0.308076 -0.00988016 4.79634e-22)
(0.477986 -0.0240066 3.85924e-21)
(0.658024 -0.0326902 -1.08892e-20)
(0.832734 -0.0366781 0)
(0.997692 -0.0380897 -2.23909e-21)
(1.16829 -0.0259958 0)
(-0.127126 0.00458903 0)
(-0.132676 0.00429183 -1.78155e-22)
(-0.137746 0.0038659 3.45896e-22)
(-0.14227 0.00344968 -1.47346e-22)
(-0.146325 0.00306018 0)
(-0.14994 0.00269528 1.30489e-22)
(-0.153137 0.00235317 -1.31136e-22)
(-0.155938 0.00203277 0)
(-0.158364 0.00173471 0)
(-0.16044 0.00146208 1.08565e-23)
(-0.162195 0.00122075 0)
(-0.163669 0.00101955 0)
(-0.164916 0.000869753 0)
(-0.166008 0.00078398 0)
(-0.167036 0.000773828 -7.30925e-24)
(-0.168091 0.00084561 7.34711e-24)
(-0.169295 0.000994718 0)
(-0.17087 0.00120442 -1.5437e-24)
(-0.173008 0.0014466 1.55182e-24)
(-0.174934 0.00164943 0)
(-0.10517 0.012461 0)
(-0.109471 0.0115935 4.78322e-23)
(-0.11326 0.0104116 0)
(-0.116532 0.00927621 6.07632e-22)
(-0.119475 0.00821537 -5.92672e-22)
(-0.12212 0.00722277 3.47756e-23)
(-0.124476 0.00629339 -2.36605e-22)
(-0.126557 0.0054236 4.76382e-22)
(-0.12838 0.0046142 -3.71895e-22)
(-0.129963 0.00387234 1.96466e-22)
(-0.131325 0.00321294 1.3556e-22)
(-0.132495 0.00265986 -2.33431e-22)
(-0.133509 0.00224505 1.12917e-22)
(-0.13442 0.00200574 4.50361e-23)
(-0.135297 0.00197858 -3.565e-23)
(-0.136213 0.00218803 5.05863e-24)
(-0.137268 0.00262877 3.3633e-24)
(-0.138665 0.00325665 4.97871e-24)
(-0.140641 0.00398857 -5.00282e-24)
(-0.14255 0.00461616 9.98468e-25)
(-0.0618127 0.0167664 -5.39038e-23)
(-0.0640029 0.0152642 -4.79156e-23)
(-0.0654332 0.0135719 -4.58209e-23)
(-0.0663897 0.0120087 0)
(-0.0672472 0.010557 -6.63318e-22)
(-0.0680366 0.00920638 5.1894e-22)
(-0.0687458 0.00794633 0)
(-0.0693783 0.00677098 -5.58516e-23)
(-0.069944 0.00568153 -2.46372e-23)
(-0.0704542 0.00468435 2.70066e-22)
(-0.07092 0.0037955 -5.27946e-23)
(-0.0713523 0.00304631 -2.90975e-22)
(-0.0717673 0.00248265 -1.10456e-23)
(-0.07219 0.00216196 -9.4942e-24)
(-0.0726562 0.00214638 -5.65121e-24)
(-0.0732078 0.00248886 9.1807e-24)
(-0.0739017 0.00320558 -1.08297e-23)
(-0.0748926 0.00424873 -8.57786e-24)
(-0.0764613 0.00549285 -1.32288e-24)
(-0.078228 0.00660749 -4.58633e-25)
(0.00426907 0.0149973 -1.64823e-21)
(0.00403195 0.013786 1.58311e-22)
(0.00566463 0.0120427 1.75622e-22)
(0.00758629 0.0102813 1.42901e-21)
(0.00934928 0.00873113 1.16754e-22)
(0.0109391 0.0073381 3.50568e-23)
(0.0123942 0.00604419 -8.80927e-22)
(0.0137348 0.00484119 5.61023e-22)
(0.0149565 0.00374663 4.13701e-22)
(0.0160437 0.00276924 -3.16073e-22)
(0.0169881 0.00191447 5.62022e-23)
(0.0177874 0.00120968 2.82068e-22)
(0.0184384 0.000700981 1.09537e-23)
(0.0189343 0.00045165 6.06712e-23)
(0.0192655 0.000541231 -4.26957e-23)
(0.0194226 0.00105694 -1.34651e-23)
(0.0193949 0.00205177 1.59486e-23)
(0.0191117 0.0035065 0)
(0.0183141 0.00527256 -2.07726e-24)
(0.0169704 0.00691073 4.26807e-25)
(0.0982242 0.00699921 3.37784e-21)
(0.101413 0.00711852 -1.51157e-21)
(0.10438 0.00541397 1.62388e-21)
(0.108571 0.00369865 0)
(0.112775 0.00238042 -7.80351e-23)
(0.116554 0.0012729 -1.04615e-21)
(0.120001 0.000248522 7.47706e-23)
(0.123234 -0.000697024 1.29049e-22)
(0.12627 -0.00155794 7.84795e-22)
(0.129055 -0.00232811 3.90454e-23)
(0.131566 -0.00297692 0)
(0.133805 -0.0034657 -2.49005e-23)
(0.135769 -0.00374705 0)
(0.137459 -0.00375992 -1.23729e-23)
(0.138886 -0.00342862 0)
(0.140051 -0.00266496 0)
(0.140963 -0.00137773 -6.74046e-25)
(0.141617 0.000479841 8.71979e-24)
(0.141865 0.00280235 -9.16527e-24)
(0.141407 0.00515692 2.87723e-24)
(0.232641 -0.00500837 0)
(0.23778 -0.0034327 -1.10288e-22)
(0.24063 -0.00471958 -2.9605e-21)
(0.245478 -0.00622627 2.87373e-21)
(0.250823 -0.00726278 -7.71956e-23)
(0.255669 -0.00805943 0)
(0.260072 -0.00881189 -8.98883e-22)
(0.264221 -0.00951939 1.60281e-21)
(0.268159 -0.0101365 -7.93664e-22)
(0.271883 -0.0106253 -3.12823e-23)
(0.275373 -0.0109561 -2.28903e-23)
(0.278593 -0.0111004 -1.50269e-23)
(0.281521 -0.0110173 0)
(0.284139 -0.0106522 1.2617e-23)
(0.286446 -0.00994715 1.50012e-23)
(0.288451 -0.00882646 -2.48809e-23)
(0.290196 -0.00720926 1.08771e-23)
(0.291674 -0.00498781 1.13756e-23)
(0.292957 -0.00220579 -5.47778e-24)
(0.293541 0.00110194 5.49407e-24)
(0.419346 -0.017567 3.13825e-21)
(0.424494 -0.0148064 0)
(0.424697 -0.0161049 -1.0337e-22)
(0.427561 -0.0174924 1.7322e-22)
(0.431992 -0.0181776 1.52934e-22)
(0.436238 -0.0186905 6.60506e-23)
(0.440086 -0.0192822 5.57373e-23)
(0.443802 -0.0198525 -6.29713e-22)
(0.447455 -0.0202717 7.52967e-22)
(0.450972 -0.0204953 4.45531e-22)
(0.454289 -0.0205197 -3.64911e-22)
(0.457369 -0.0203209 2.40138e-23)
(0.460194 -0.0198667 -1.18481e-23)
(0.462735 -0.0191092 4.8324e-23)
(0.465006 -0.0180132 -4.9013e-23)
(0.466989 -0.016502 -1.36607e-23)
(0.468787 -0.014565 2.70278e-23)
(0.47029 -0.0120469 -1.60838e-23)
(0.471867 -0.00912581 -6.01128e-23)
(0.472977 -0.00492646 -5.07116e-24)
(0.656921 -0.0256871 0)
(0.659336 -0.0234036 -3.73312e-21)
(0.656329 -0.025699 3.82047e-21)
(0.65618 -0.0272359 -8.67205e-23)
(0.658262 -0.0276871 -1.49216e-22)
(0.660547 -0.0281072 -6.59923e-23)
(0.662653 -0.0286842 -1.07271e-22)
(0.664792 -0.0291701 0)
(0.666973 -0.0294338 -3.52294e-23)
(0.669059 -0.0294609 -2.59085e-23)
(0.670966 -0.0292497 -1.18877e-23)
(0.672647 -0.0287691 -1.26624e-23)
(0.674106 -0.0280018 0)
(0.675293 -0.0269009 0)
(0.676291 -0.025476 9.69851e-24)
(0.676997 -0.0236269 1.65508e-22)
(0.67769 -0.0214743 -1.18365e-22)
(0.678029 -0.0186913 1.77695e-23)
(0.678815 -0.0160214 4.36206e-23)
(0.679064 -0.0113063 -1.31317e-23)
(0.922179 -0.0248948 3.24626e-21)
(0.921654 -0.024966 0)
(0.917725 -0.0290868 0)
(0.916464 -0.0311908 -2.50014e-21)
(0.916878 -0.0321502 4.24195e-22)
(0.917268 -0.0332061 3.88183e-21)
(0.917435 -0.0342399 -1.70143e-21)
(0.917532 -0.0349341 0)
(0.917518 -0.0352448 0)
(0.917269 -0.0352077 0)
(0.916778 -0.0348455 8.58176e-24)
(0.916013 -0.0341331 2.72228e-24)
(0.91507 -0.033098 -1.48314e-22)
(0.913851 -0.0316862 1.40192e-22)
(0.912606 -0.029998 -1.45665e-22)
(0.911032 -0.0278558 1.27151e-22)
(0.909781 -0.0256275 0)
(0.907965 -0.0226144 -7.75547e-24)
(0.907276 -0.020363 -1.31826e-23)
(0.905342 -0.0156912 0)
(1.18353 -0.0223228 -6.60163e-23)
(1.18738 -0.0283361 -3.71023e-21)
(1.18733 -0.032964 3.67164e-21)
(1.18691 -0.0344926 0)
(1.18555 -0.0353043 2.04453e-21)
(1.18315 -0.036104 -3.63544e-21)
(1.18018 -0.03663 1.59543e-21)
(1.17691 -0.0367737 0)
(1.17342 -0.0366121 2.71574e-22)
(1.1697 -0.0361719 -3.94542e-22)
(1.16588 -0.0354708 1.27515e-22)
(1.16192 -0.0344564 8.18057e-25)
(1.15805 -0.0331927 0)
(1.15404 -0.0315691 2.9192e-22)
(1.15038 -0.0297924 -4.47376e-22)
(1.14641 -0.0275305 1.63547e-22)
(1.14331 -0.025424 1.62245e-22)
(1.13945 -0.0224028 -1.04289e-22)
(1.13759 -0.0205295 -6.50151e-23)
(1.13367 -0.0163302 0)
(1.45744 -0.0147496 0)
(1.443 -0.0195533 0)
(1.43138 -0.0226302 0)
(1.42092 -0.0246965 0)
(1.41128 -0.0263946 0)
(1.40252 -0.0277434 0)
(1.39465 -0.0287003 0)
(1.38748 -0.0292939 0)
(1.38088 -0.0295869 0)
(1.37467 -0.029568 0)
(1.36887 -0.0292819 0)
(1.36328 -0.0286625 0)
(1.35813 -0.0278248 0)
(1.35301 -0.0266009 0)
(1.34854 -0.0252894 0)
(1.34375 -0.0234348 0)
(1.34018 -0.0218277 0)
(1.33561 -0.0192448 0)
(1.33348 -0.0178374 0)
(1.32872 -0.0143063 0)
(1.58393 -0.00614899 0)
(1.57774 -0.00875354 0)
(1.57165 -0.0115069 0)
(1.56539 -0.0143622 0)
(1.55905 -0.0169648 0)
(1.55282 -0.0190916 0)
(1.54687 -0.0207294 0)
(1.54113 -0.0219159 0)
(1.53566 -0.0227226 0)
(1.53034 -0.0231399 0)
(1.52532 -0.023242 0)
(1.52038 -0.0229593 0)
(1.51585 -0.0224462 0)
(1.51126 -0.0215135 0)
(1.50731 -0.0205121 0)
(1.50299 -0.0189564 0)
(1.49987 -0.0176817 0)
(1.49566 -0.0154916 0)
(1.49381 -0.0143948 0)
(1.48924 -0.0114921 0)
(1.68187 -0.000993924 0)
(1.67853 -0.00449817 0)
(1.67456 -0.0074359 0)
(1.67046 -0.0102472 0)
(1.66649 -0.0127872 0)
(1.66268 -0.0148801 0)
(1.659 -0.0165148 0)
(1.65536 -0.0177167 0)
(1.65182 -0.0185625 0)
(1.64831 -0.0190363 0)
(1.64497 -0.0192256 0)
(1.64164 -0.0190436 0)
(1.63858 -0.0186645 0)
(1.63545 -0.0178744 0)
(1.6328 -0.017053 0)
(1.62985 -0.0156959 0)
(1.62781 -0.0146456 0)
(1.62496 -0.012741 0)
(1.6238 -0.0118565 0)
(1.62075 -0.00936141 0)
(1.76689 0.0033112 0)
(1.7655 -0.000906143 0)
(1.76278 -0.00427568 0)
(1.75978 -0.0072126 0)
(1.75703 -0.00978695 0)
(1.75455 -0.0119296 0)
(1.75221 -0.013637 0)
(1.74991 -0.0149101 0)
(1.74767 -0.0158294 0)
(1.74545 -0.0163738 0)
(1.74335 -0.016652 0)
(1.74129 -0.016562 0)
(1.73942 -0.0163042 0)
(1.73754 -0.015637 0)
(1.73598 -0.0149751 0)
(1.73431 -0.0137803 0)
(1.73317 -0.0129205 0)
(1.73168 -0.0112228 0)
(1.73109 -0.0105087 0)
(1.72966 -0.00825675 0)
(1.84835 0.00617587 0)
(1.84816 0.00157221 0)
(1.84646 -0.00213364 0)
(1.84426 -0.00519482 0)
(1.84223 -0.0077923 0)
(1.84048 -0.00996295 0)
(1.83888 -0.0117298 0)
(1.83731 -0.0130702 0)
(1.83576 -0.0140647 0)
(1.83426 -0.0146796 0)
(1.83282 -0.0150464 0)
(1.83147 -0.0150446 0)
(1.83024 -0.0149045 0)
(1.82909 -0.0143517 0)
(1.82811 -0.013839 0)
(1.8272 -0.0127861 0)
(1.82653 -0.0120951 0)
(1.82589 -0.0105646 0)
(1.82558 -0.00999223 0)
(1.82517 -0.00792512 0)
(1.9325 0.00778152 0)
(1.93285 0.00312196 0)
(1.93176 -0.000703577 0)
(1.93002 -0.00379766 0)
(1.92831 -0.00638552 0)
(1.92684 -0.00854786 0)
(1.92551 -0.0103343 0)
(1.92422 -0.0117111 0)
(1.92292 -0.0127606 0)
(1.92166 -0.0134329 0)
(1.92045 -0.0138776 0)
(1.91933 -0.0139563 0)
(1.91829 -0.0139246 0)
(1.91738 -0.0134805 0)
(1.91656 -0.0131046 0)
(1.91591 -0.0121874 0)
(1.91536 -0.0116457 0)
(1.91499 -0.0102749 0)
(1.91473 -0.00982156 0)
(1.91463 -0.00793941 0)
(2.02082 0.00879991 0)
(2.02126 0.00432126 0)
(2.02038 0.000569674 0)
(2.01877 -0.00250029 0)
(2.01705 -0.00507379 0)
(2.01551 -0.00721834 0)
(2.0141 -0.00900496 0)
(2.01276 -0.010401 0)
(2.01139 -0.0114933 0)
(2.01006 -0.0122178 0)
(2.00875 -0.0127339 0)
(2.00756 -0.0128916 0)
(2.00641 -0.01296 0)
(2.00542 -0.0126247 0)
(2.00449 -0.0123727 0)
(2.00374 -0.0115934 0)
(2.00308 -0.0111821 0)
(2.00258 -0.00997733 0)
(2.00224 -0.00962335 0)
(2.00195 -0.00794307 0)
(2.11053 0.00978001 0)
(2.11084 0.00557802 0)
(2.10992 0.00196982 0)
(2.10823 -0.00106569 0)
(2.10636 -0.00360865 0)
(2.10463 -0.00572253 0)
(2.10301 -0.00749649 0)
(2.10146 -0.00890196 0)
(2.09988 -0.0100281 0)
(2.09834 -0.0108032 0)
(2.09682 -0.0113862 0)
(2.0954 -0.0116253 0)
(2.09404 -0.0117869 0)
(2.09281 -0.0115646 0)
(2.09168 -0.0114255 0)
(2.09067 -0.0107909 0)
(2.08983 -0.0104942 0)
(2.08903 -0.00946671 0)
(2.08856 -0.0091964 0)
(2.0879 -0.00773722 0)
(2.19648 0.0108942 0)
(2.19667 0.00696626 0)
(2.1957 0.00349923 0)
(2.19401 0.000544078 0)
(2.1921 -0.00194807 0)
(2.19027 -0.00402367 0)
(2.18851 -0.00577426 0)
(2.18682 -0.00718099 0)
(2.1851 -0.00833242 0)
(2.18342 -0.00915676 0)
(2.18175 -0.00980199 0)
(2.18018 -0.0101257 0)
(2.17867 -0.010375 0)
(2.17728 -0.0102711 0)
(2.17601 -0.0102363 0)
(2.17482 -0.00975396 0)
(2.17385 -0.00956017 0)
(2.17284 -0.00872099 0)
(2.17229 -0.00852337 0)
(2.17135 -0.00730065 0)
(2.27372 0.0119511 0)
(2.27402 0.00828162 0)
(2.2733 0.00497209 0)
(2.2719 0.00212937 0)
(2.27023 -0.000289478 0)
(2.2686 -0.0023093 0)
(2.26699 -0.00402351 0)
(2.26545 -0.00542247 0)
(2.26385 -0.0065884 0)
(2.2623 -0.00745606 0)
(2.26073 -0.00815547 0)
(2.25928 -0.00856203 0)
(2.25785 -0.00889171 0)
(2.25656 -0.0089065 0)
(2.25534 -0.00896716 0)
(2.25424 -0.0086388 0)
(2.25331 -0.00853806 0)
(2.25239 -0.0078904 0)
(2.25185 -0.00775735 0)
(2.25098 -0.00677499 0)
(2.34029 0.0125048 0)
(2.34112 0.00910436 0)
(2.34107 0.00598097 0)
(2.3404 0.00327469 0)
(2.33942 0.00097199 0)
(2.33842 -0.000961773 0)
(2.33738 -0.00261731 0)
(2.33638 -0.00398923 0)
(2.33529 -0.00515101 0)
(2.33426 -0.00604594 0)
(2.33315 -0.00678351 0)
(2.33217 -0.00725972 0)
(2.33114 -0.00765556 0)
(2.33031 -0.00777704 0)
(2.32943 -0.00791973 0)
(2.32879 -0.00773338 0)
(2.32812 -0.00771375 0)
(2.32766 -0.00724473 0)
(2.32727 -0.00716824 0)
(2.32694 -0.00641038 0)
(2.39977 0.0120147 0)
(2.40152 0.0089241 0)
(2.40254 0.00603539 0)
(2.40302 0.0035184 0)
(2.40314 0.00137482 0)
(2.40316 -0.000435383 0)
(2.40306 -0.00199687 0)
(2.40298 -0.00330762 0)
(2.40274 -0.00443383 0)
(2.40256 -0.00532408 0)
(2.40222 -0.00607142 0)
(2.40205 -0.00658723 0)
(2.40169 -0.00702414 0)
(2.40163 -0.00722242 0)
(2.40132 -0.00742506 0)
(2.40142 -0.00734935 0)
(2.40119 -0.00739325 0)
(2.40151 -0.00706842 0)
(2.40138 -0.00703812 0)
(2.40193 -0.00646423 0)
(2.46203 0.0100976 0)
(2.46479 0.00737604 0)
(2.46701 0.00479402 0)
(2.46877 0.00253194 0)
(2.4701 0.000596732 0)
(2.47127 -0.00103784 0)
(2.47222 -0.00245833 0)
(2.47314 -0.00366124 0)
(2.47384 -0.00470839 0)
(2.47461 -0.0055468 0)
(2.47511 -0.00626333 0)
(2.47581 -0.00677272 0)
(2.47619 -0.00721451 0)
(2.47693 -0.0074431 0)
(2.47723 -0.00767455 0)
(2.47811 -0.00766081 0)
(2.47835 -0.00774426 0)
(2.47945 -0.00751075 0)
(2.47959 -0.00751305 0)
(2.48103 -0.00706254 0)
(2.54027 0.00686132 0)
(2.54364 0.00456276 0)
(2.54666 0.00235942 0)
(2.54929 0.000416725 0)
(2.55148 -0.00125764 0)
(2.55343 -0.00267159 0)
(2.55508 -0.00390791 0)
(2.55667 -0.0049536 0)
(2.55799 -0.00587531 0)
(2.55935 -0.00661147 0)
(2.5604 -0.00725404 0)
(2.56162 -0.00770726 0)
(2.56247 -0.008115 0)
(2.56367 -0.00832361 0)
(2.56434 -0.00855027 0)
(2.56563 -0.00854629 0)
(2.56614 -0.00864338 0)
(2.56763 -0.00844535 0)
(2.56792 -0.00846537 0)
(2.56974 -0.0080756 0)
(2.64378 0.0030737 0)
(2.64693 0.00121728 0)
(2.64988 -0.000570094 0)
(2.65252 -0.0021582 0)
(2.65474 -0.00354367 0)
(2.65668 -0.00471269 0)
(2.6583 -0.00574142 0)
(2.65982 -0.00660144 0)
(2.66108 -0.00736964 0)
(2.66233 -0.0079718 0)
(2.66331 -0.00851206 0)
(2.66438 -0.00887638 0)
(2.66513 -0.0092233 0)
(2.66612 -0.00937838 0)
(2.66669 -0.00957615 0)
(2.6677 -0.00954722 0)
(2.66811 -0.00963847 0)
(2.66924 -0.00943952 0)
(2.66947 -0.00946534 0)
(2.67082 -0.00909658 0)
(2.77012 -0.000141345 0)
(2.77219 -0.00158079 0)
(2.77419 -0.00296625 0)
(2.77595 -0.00421036 0)
(2.77736 -0.00531758 0)
(2.77845 -0.00625099 0)
(2.77929 -0.0070787 0)
(2.77996 -0.00775787 0)
(2.78046 -0.00837378 0)
(2.78086 -0.00884186 0)
(2.78113 -0.00927667 0)
(2.78133 -0.00954951 0)
(2.78143 -0.00983009 0)
(2.78149 -0.00992796 0)
(2.78149 -0.0100897 0)
(2.78148 -0.0100319 0)
(2.78144 -0.0101097 0)
(2.78141 -0.00990642 0)
(2.78137 -0.00993209 0)
(2.78135 -0.00958193 0)
(2.90373 -0.00200906 0)
(2.90441 -0.00308485 0)
(2.9051 -0.00411649 0)
(2.90556 -0.00505343 0)
(2.90576 -0.00590733 0)
(2.90561 -0.00662817 0)
(2.9053 -0.00727408 0)
(2.90472 -0.00779426 0)
(2.90412 -0.00827342 0)
(2.90326 -0.00862603 0)
(2.9025 -0.00896581 0)
(2.90141 -0.00916409 0)
(2.90057 -0.00938499 0)
(2.89929 -0.00944274 0)
(2.89846 -0.00957179 0)
(2.89701 -0.00950338 0)
(2.89632 -0.00956787 0)
(2.89467 -0.00938103 0)
(2.89425 -0.00940468 0)
(2.89232 -0.00909793 0)
(3.024 -0.00251027 0)
(3.02353 -0.00327001 0)
(3.02308 -0.00399152 0)
(3.02236 -0.00464819 0)
(3.02147 -0.00525742 0)
(3.02016 -0.00577265 0)
(3.01878 -0.0062392 0)
(3.01701 -0.00660955 0)
(3.01537 -0.00695539 0)
(3.01329 -0.00720375 0)
(3.01154 -0.00745056 0)
(3.00919 -0.00758714 0)
(3.00744 -0.00774913 0)
(3.00482 -0.0077825 0)
(3.00321 -0.0078784 0)
(3.0003 -0.00781859 0)
(2.99899 -0.00786792 0)
(2.9957 -0.00772047 0)
(2.99492 -0.00773968 0)
(2.99107 -0.00750336 0)
(3.11417 -0.00191143 0)
(3.11288 -0.00239507 0)
(3.11163 -0.00284053 0)
(3.11004 -0.0032386 0)
(3.10835 -0.00360778 0)
(3.10617 -0.00391898 0)
(3.10401 -0.0042013 0)
(3.10135 -0.00442315 0)
(3.09894 -0.00463129 0)
(3.09593 -0.00477884 0)
(3.09345 -0.00492748 0)
(3.09012 -0.00500761 0)
(3.08769 -0.00510514 0)
(3.08404 -0.0051226 0)
(3.08183 -0.00518003 0)
(3.07778 -0.00514074 0)
(3.07601 -0.00516992 0)
(3.07144 -0.00507704 0)
(3.0704 -0.0050881 0)
(3.06504 -0.00494007 0)
(3.16267 -0.000552717 0)
(3.16092 -0.000753013 0)
(3.15922 -0.000929689 0)
(3.15715 -0.00108275 0)
(3.15502 -0.00122146 0)
(3.15235 -0.0013375 0)
(3.14976 -0.00144126 0)
(3.1466 -0.00152278 0)
(3.14377 -0.00159809 0)
(3.14024 -0.00165211 0)
(3.13736 -0.00170539 0)
(3.13349 -0.0017353 0)
(3.1307 -0.00177004 0)
(3.12647 -0.00177796 0)
(3.12394 -0.00179822 0)
(3.11927 -0.00178652 0)
(3.11725 -0.00179659 0)
(3.11197 -0.00176651 0)
(3.1108 -0.00177014 0)
(3.10462 -0.00172104 0)
(1.84419 0.114047 1.18636e-21)
(1.85049 0.100727 0)
(1.84579 0.0866007 -1.32907e-22)
(1.83195 0.0720814 -3.82264e-21)
(1.80765 0.0572691 2.66658e-21)
(1.77722 0.0433282 0)
(1.73635 0.0287107 -9.56308e-22)
(1.68362 0.017885 0)
(1.63703 0.00212247 -2.94208e-21)
(1.47708 -0.0109926 4.64615e-23)
(1.91109 0.104714 -1.47527e-21)
(1.91502 0.0932873 2.35897e-22)
(1.90882 0.0809225 -2.36373e-22)
(1.89286 0.0692894 -1.22431e-21)
(1.86962 0.0562622 -3.53145e-21)
(1.83456 0.0456925 -1.54546e-22)
(1.80563 0.0325134 0)
(1.73884 0.0233828 -9.20011e-22)
(1.7322 0.0133956 0)
(1.58989 -0.00271986 2.06695e-21)
(1.98442 0.095373 3.08734e-21)
(1.98508 0.0855919 0)
(1.97942 0.074336 -2.10529e-22)
(1.95885 0.0646394 -9.53012e-22)
(1.94021 0.0531824 3.69087e-21)
(1.89576 0.0443945 0)
(1.87899 0.0343859 4.74924e-21)
(1.80017 0.0246269 1.00261e-21)
(1.80346 0.0193392 0)
(1.6846 0.0042984 -2.04574e-21)
(2.06008 0.0874594 -1.42298e-21)
(2.05729 0.078832 5.50744e-21)
(2.05453 0.0689138 0)
(2.02923 0.0602202 6.39166e-21)
(2.01665 0.0507605 2.91894e-22)
(1.9651 0.0419649 -5.06423e-22)
(1.95393 0.0348896 -4.46521e-21)
(1.87283 0.0242316 -1.45871e-22)
(1.86981 0.0205015 -3.25908e-21)
(1.76709 0.00884266 0)
(2.13393 0.0807852 0)
(2.12851 0.0729015 -5.38317e-21)
(2.12932 0.0646013 -5.76797e-21)
(2.10184 0.0562928 7.27263e-22)
(2.09397 0.0488507 -4.491e-22)
(2.04146 0.0397396 -2.74371e-22)
(2.03044 0.0342794 -8.14512e-21)
(1.95365 0.0241305 -3.53184e-22)
(1.94338 0.020159 -1.50122e-21)
(1.84732 0.0115409 2.85275e-21)
(2.20194 0.0748954 1.93992e-21)
(2.19554 0.0675637 3.6914e-22)
(2.19926 0.0607651 -1.11053e-21)
(2.17295 0.0528096 3.07656e-22)
(2.16821 0.0468021 -7.78815e-21)
(2.11965 0.038105 0)
(2.10858 0.0331662 8.86562e-21)
(2.03776 0.0245573 -2.59966e-22)
(2.02552 0.0199789 1.12555e-20)
(1.93125 0.0130258 -7.18401e-21)
(2.26097 0.0693652 -1.94946e-21)
(2.25513 0.062646 -3.50658e-21)
(2.26117 0.0569743 5.62515e-21)
(2.2382 0.0497049 -9.62047e-21)
(2.23652 0.044517 -1.39063e-21)
(2.19385 0.0369056 -7.13197e-21)
(2.18565 0.0320838 3.11165e-22)
(2.12066 0.0249495 -5.58289e-22)
(2.11123 0.0200659 -6.11218e-21)
(2.01974 0.0138119 4.31674e-21)
(2.30967 0.0638031 0)
(2.30525 0.0578446 7.63391e-21)
(2.3135 0.0529944 -7.80743e-22)
(2.29442 0.0466943 5.09612e-21)
(2.29657 0.0420734 -7.51519e-22)
(2.25982 0.0356912 1.45862e-20)
(2.25693 0.0311062 -6.2703e-21)
(2.19843 0.0249711 0)
(2.19407 0.020284 0)
(2.1097 0.0144252 0)
(2.34925 0.0579278 0)
(2.34646 0.052786 -7.12138e-21)
(2.35683 0.0486423 -4.42045e-22)
(2.34122 0.0433545 5.49258e-21)
(2.34721 0.0393524 9.40647e-21)
(2.31598 0.0340243 -8.36737e-21)
(2.31853 0.0299903 7.56683e-21)
(2.26798 0.0246081 -4.00613e-22)
(2.2685 0.0205148 0)
(2.19584 0.0151417 4.28111e-21)
(2.38411 0.0515378 2.63733e-22)
(2.38292 0.0471589 4.07517e-21)
(2.39466 0.0437133 6.18363e-21)
(2.38186 0.0393271 -2.99868e-22)
(2.3902 0.0360565 6.97717e-22)
(2.36401 0.0316187 -9.71792e-21)
(2.36982 0.0283578 8.93142e-21)
(2.32818 0.0237824 -4.39744e-22)
(2.33157 0.02042 0)
(2.27302 0.015815 -9.09942e-21)
(2.422 0.0444879 0)
(2.42223 0.0408122 4.14152e-21)
(2.43395 0.038039 2.45526e-22)
(2.42321 0.0344469 0)
(2.43134 0.0318973 0)
(2.40927 0.0283142 8.63841e-21)
(2.41498 0.0258056 -7.40282e-21)
(2.38136 0.0222103 -4.12304e-22)
(2.38486 0.0194857 2.30883e-22)
(2.33914 0.0159822 4.98651e-21)
(2.47285 0.0367855 0)
(2.47402 0.0338164 -7.92392e-21)
(2.4842 0.0316126 -8.28697e-21)
(2.47452 0.0287762 1.209e-21)
(2.48006 0.0267718 -7.65349e-22)
(2.46035 0.0240707 -5.88802e-22)
(2.46307 0.022079 1.09212e-21)
(2.43432 0.0195802 6.79624e-21)
(2.43574 0.0172889 6.25975e-22)
(2.3978 0.0150855 -1.87232e-22)
(2.54552 0.0288877 0)
(2.54672 0.0266123 4.28089e-21)
(2.55444 0.0247944 -4.54226e-22)
(2.5446 0.0226756 4.50476e-22)
(2.54656 0.0209545 0)
(2.52691 0.0190893 0)
(2.52567 0.0173187 0)
(2.49745 0.0158322 -7.70661e-21)
(2.49615 0.0137764 7.12032e-21)
(2.45911 0.0127471 0)
(2.64312 0.0215822 0)
(2.64321 0.0199035 2.75562e-21)
(2.64865 0.0182985 3.4641e-21)
(2.63759 0.0167704 4.36254e-21)
(2.63691 0.0151384 -8.17715e-22)
(2.6156 0.0138988 4.86234e-21)
(2.61172 0.0121725 -4.21782e-21)
(2.58082 0.0113528 0)
(2.57785 0.00943702 5.7313e-22)
(2.53679 0.00909484 -6.63835e-21)
(2.75936 0.0155984 -6.31944e-22)
(2.75767 0.0143381 -2.24109e-21)
(2.76187 0.0128903 -4.48042e-21)
(2.74952 0.0117265 -3.07098e-21)
(2.74832 0.0101709 0)
(2.72549 0.00922109 -6.16487e-21)
(2.72156 0.00756802 6.0691e-21)
(2.68816 0.00693167 -5.6947e-22)
(2.6853 0.00519338 -3.53203e-21)
(2.64059 0.00491673 9.71086e-21)
(2.87953 0.0112609 6.35186e-22)
(2.87653 0.010213 -1.76329e-21)
(2.88061 0.0089812 1.5303e-21)
(2.86831 0.00794789 -3.69319e-21)
(2.86837 0.00659883 0)
(2.84643 0.00564802 0)
(2.84438 0.00422163 5.99297e-22)
(2.81234 0.00341732 -5.59765e-21)
(2.81074 0.00195219 -3.30522e-21)
(2.76805 0.00135153 -3.30978e-21)
(2.98728 0.00818523 0)
(2.98449 0.00724305 2.87666e-21)
(2.98894 0.00632277 -1.02527e-21)
(2.97889 0.00532555 3.30708e-21)
(2.9806 0.0043178 8.73808e-22)
(2.96291 0.00329245 -6.97005e-22)
(2.96293 0.00221457 1.29487e-21)
(2.93726 0.00120916 3.86777e-21)
(2.93686 7.29557e-05 0)
(2.90305 -0.000833323 0)
(3.07309 0.00553277 0)
(3.07188 0.00477939 1.1847e-21)
(3.0763 0.0042407 -2.11305e-21)
(3.07011 0.00338519 0)
(3.07258 0.00276944 -1.69418e-21)
(3.06128 0.00182065 -7.09613e-22)
(3.06227 0.00111332 -1.95649e-21)
(3.04585 0.000117832 -5.497e-22)
(3.04583 -0.000690567 2.92134e-22)
(3.02445 -0.00164333 2.33846e-22)
(3.13504 0.00290902 0)
(3.13539 0.00251513 -1.19036e-21)
(3.13892 0.00236078 -1.04889e-21)
(3.13639 0.00184944 1.41803e-21)
(3.13844 0.00160139 8.00062e-22)
(3.13312 0.000967209 7.56575e-22)
(3.13387 0.000598507 3.27581e-21)
(3.12598 -0.000119534 -2.34505e-21)
(3.12558 -0.000617026 5.38636e-22)
(3.1154 -0.00134404 0)
(3.16947 0.000639841 0)
(3.17049 0.000630785 5.77121e-22)
(3.17297 0.000718984 -5.46517e-22)
(3.17246 0.000640884 5.10128e-22)
(3.17375 0.00065591 0)
(3.17188 0.000486805 -7.60299e-22)
(3.17204 0.000406773 6.40853e-22)
(3.16906 0.000158456 5.53555e-22)
(3.16815 -1.83641e-05 0)
(3.16438 -0.000313454 0)
(1.14693 0.22756 0)
(1.08404 0.248569 -5.25396e-20)
(1.03433 0.277155 0)
(0.994177 0.314411 -1.73698e-19)
(0.959155 0.359886 6.61688e-20)
(0.926766 0.415274 2.30131e-21)
(0.893814 0.48093 5.70532e-20)
(0.842544 0.545589 -7.17311e-21)
(0.715135 0.555621 0)
(0.398159 0.342617 5.895e-20)
(1.24059 0.229521 9.57614e-20)
(1.17863 0.256893 5.25386e-20)
(1.12849 0.284161 -4.95409e-20)
(1.08673 0.320216 5.85649e-20)
(1.05134 0.365687 -4.93339e-20)
(1.02108 0.421154 7.57251e-21)
(0.992066 0.486432 -5.85053e-20)
(0.94359 0.549556 -1.16025e-19)
(0.808539 0.556337 -3.07695e-20)
(0.451002 0.337994 -8.60486e-20)
(1.3297 0.227349 -4.19459e-20)
(1.27146 0.257105 4.33768e-20)
(1.22198 0.283791 4.95394e-20)
(1.17865 0.319042 5.06479e-20)