/*--------------------------------*- C++ -*----------------------------------*\
| =========                 |                                                 |
| \\      /  F ield         | OpenFOAM: The Open Source CFD Toolbox           |
|  \\    /   O peration     | Version:  4.1                                   |
|   \\  /    A nd           | Web:      www.OpenFOAM.org                      |
|    \\/     M anipulation  |                                                 |
\*---------------------------------------------------------------------------*/
FoamFile
{
    version     2.0;
    format      ascii;
    class       volScalarField;
    location    "6";
    object      p;
}
// * * * * * * * * * * * * * * * * * * * * * * * * * * * * * * * * * * * * * //

dimensions      [0 2 -2 0 0 0 0];

internalField   nonuniform List<scalar> 
2000
(
-0.410096
-0.398065
-0.387576
-0.377763
-0.367936
-0.356801
-0.343075
-0.326783
-0.30606
-0.285824
-0.432458
-0.41699
-0.404044
-0.391224
-0.376969
-0.360129
-0.340324
-0.318032
-0.293393
-0.269755
-0.458982
-0.439488
-0.42346
-0.406311
-0.385796
-0.361766
-0.335139
-0.307264
-0.278869
-0.251824
-0.489415
-0.465248
-0.445173
-0.421738
-0.392949
-0.360587
-0.327014
-0.294002
-0.262348
-0.233806
-0.522695
-0.493317
-0.467698
-0.435534
-0.396697
-0.355469
-0.315199
-0.277546
-0.243148
-0.212544
-0.556898
-0.521987
-0.488537
-0.445183
-0.395232
-0.34526
-0.298861
-0.257172
-0.220254
-0.187804
-0.588993
-0.548605
-0.504479
-0.448035
-0.386854
-0.32885
-0.277104
-0.231934
-0.192762
-0.15842
-0.615153
-0.569483
-0.512205
-0.441773
-0.370104
-0.305191
-0.249023
-0.201002
-0.159839
-0.123827
-0.631385
-0.580391
-0.508621
-0.424552
-0.343778
-0.273315
-0.213759
-0.163607
-0.120913
-0.0836856
-0.634099
-0.577448
-0.491032
-0.394954
-0.30694
-0.2324
-0.170535
-0.119064
-0.0755283
-0.0378954
-0.302697
-0.308717
-0.311078
-0.312526
-0.313277
-0.312865
-0.31091
-0.307162
-0.301594
-0.294525
-0.306576
-0.312031
-0.314238
-0.315743
-0.316657
-0.316475
-0.31478
-0.311233
-0.305669
-0.298684
-0.313682
-0.318007
-0.31989
-0.321383
-0.322469
-0.322593
-0.321268
-0.318042
-0.31248
-0.305223
-0.322848
-0.325642
-0.32691
-0.328137
-0.3292
-0.329496
-0.328447
-0.325553
-0.320147
-0.311538
-0.332936
-0.333969
-0.334246
-0.334783
-0.335454
-0.335612
-0.334606
-0.33182
-0.326372
-0.316355
-0.343204
-0.342378
-0.341296
-0.340685
-0.340472
-0.340107
-0.338807
-0.335786
-0.330742
-0.318325
-0.353529
-0.350816
-0.348082
-0.345927
-0.344456
-0.343189
-0.341269
-0.337499
-0.332908
-0.318174
-0.364415
-0.359768
-0.355205
-0.351308
-0.348351
-0.345865
-0.342845
-0.33777
-0.332643
-0.316719
-0.376797
-0.370055
-0.363603
-0.357912
-0.353264
-0.349
-0.343897
-0.336768
-0.329011
-0.313148
-0.391727
-0.382574
-0.374178
-0.366607
-0.359808
-0.352794
-0.344066
-0.333209
-0.319859
-0.304203
-0.28628
-0.275865
-0.263535
-0.249349
-0.233377
-0.215884
-0.19708
-0.177223
-0.156582
-0.135304
-0.114379
-0.0939152
-0.0744141
-0.0561663
-0.039551
-0.0249333
-0.0126624
-0.00312418
0.00322237
0.00814974
-0.291806
-0.281607
-0.26939
-0.255345
-0.239278
-0.221819
-0.203027
-0.183241
-0.162948
-0.139945
-0.119273
-0.0987738
-0.0790319
-0.0605163
-0.0436229
-0.0287111
-0.0161167
-0.00611947
0.000632984
0.00641908
-0.301276
-0.291142
-0.279262
-0.266066
-0.248358
-0.231466
-0.212747
-0.19271
-0.171723
-0.149972
-0.12844
-0.107348
-0.0870865
-0.0680599
-0.0506449
-0.0351746
-0.0219671
-0.0111198
-0.00346484
0.00363152
-0.310754
-0.30153
-0.28949
-0.275964
-0.260349
-0.243109
-0.224242
-0.204021
-0.182786
-0.16093
-0.13898
-0.117384
-0.0965714
-0.0769546
-0.0589037
-0.0427192
-0.0287025
-0.0167788
-0.00781996
0.000800061
-0.317993
-0.310691
-0.29874
-0.285312
-0.270284
-0.253372
-0.234655
-0.214446
-0.193128
-0.171121
-0.148895
-0.126922
-0.105653
-0.0855106
-0.0668508
-0.0499498
-0.0350664
-0.022062
-0.0116184
-0.00161853
-0.321976
-0.316532
-0.304928
-0.291617
-0.277029
-0.260578
-0.242173
-0.222143
-0.200911
-0.178917
-0.156616
-0.134485
-0.11297
-0.0924956
-0.0733876
-0.0559243
-0.0402744
-0.0263844
-0.0145584
-0.00353626
-0.322467
-0.317857
-0.306552
-0.293526
-0.279405
-0.263429
-0.245449
-0.225793
-0.204882
-0.183161
-0.161081
-0.139114
-0.117673
-0.0971793
-0.077904
-0.0601568
-0.0439785
-0.0295088
-0.0166066
-0.00496857
-0.319572
-0.314221
-0.302978
-0.290359
-0.276649
-0.261178
-0.243829
-0.224841
-0.204581
-0.183495
-0.162024
-0.140621
-0.119651
-0.0995205
-0.0804304
-0.0627321
-0.0463296
-0.0315835
-0.0179443
-0.00596929
-0.313444
-0.30657
-0.295426
-0.282963
-0.269448
-0.254601
-0.238194
-0.220238
-0.201008
-0.180945
-0.160461
-0.13998
-0.119804
-0.10033
-0.081691
-0.0642878
-0.0479093
-0.0331036
-0.0189975
-0.00674377
-0.302786
-0.295793
-0.284734
-0.271508
-0.257695
-0.243406
-0.228034
-0.211295
-0.193356
-0.174616
-0.15543
-0.136185
-0.11712
-0.0986276
-0.0807803
-0.0640256
-0.0480652
-0.0335845
-0.0194975
-0.00726836
-0.274643
-0.277104
-0.267266
-0.253133
-0.239071
-0.225383
-0.21106
-0.19555
-0.178948
-0.161658
-0.144024
-0.12639
-0.108926
-0.0919757
-0.0755529
-0.0600951
-0.0452477
-0.031751
-0.0184327
-0.00697963
-0.244865
-0.252362
-0.243798
-0.229197
-0.215177
-0.202499
-0.18976
-0.176022
-0.161246
-0.145835
-0.130133
-0.114443
-0.0988775
-0.0837251
-0.0689616
-0.0550071
-0.0414881
-0.0291716
-0.0168832
-0.006443
-0.215349
-0.225127
-0.218401
-0.205008
-0.19212
-0.180873
-0.169833
-0.157902
-0.144942
-0.131341
-0.11744
-0.103521
-0.0896639
-0.0761247
-0.062855
-0.0502668
-0.0379826
-0.0267876
-0.0155246
-0.00604272
-0.186739
-0.197578
-0.193025
-0.181708
-0.170458
-0.160676
-0.151161
-0.140849
-0.129549
-0.117608
-0.105347
-0.0930379
-0.0807386
-0.0686853
-0.0568114
-0.0455201
-0.0344329
-0.0243397
-0.0140991
-0.0055615
-0.159492
-0.170936
-0.168533
-0.159518
-0.150074
-0.141747
-0.133641
-0.124819
-0.115068
-0.104678
-0.0939426
-0.0831191
-0.0722571
-0.0615793
-0.0510073
-0.0409357
-0.0309876
-0.0219511
-0.0127077
-0.00509448
-0.134201
-0.145915
-0.145392
-0.138596
-0.130972
-0.12409
-0.117319
-0.109878
-0.101558
-0.0926031
-0.0832711
-0.0738092
-0.064263
-0.0548485
-0.0454803
-0.0365456
-0.0276706
-0.0196386
-0.0113545
-0.00463361
-0.111134
-0.122796
-0.12382
-0.119051
-0.113177
-0.107696
-0.102184
-0.0960137
-0.0890041
-0.0813622
-0.0733155
-0.0650997
-0.0567586
-0.0485047
-0.040249
-0.0323723
-0.0245046
-0.0174226
-0.0100535
-0.00418885
-0.0902143
-0.101626
-0.103908
-0.100944
-0.0966953
-0.0925364
-0.0881984
-0.083194
-0.0773781
-0.0709346
-0.0640633
-0.056988
-0.0497508
-0.0425629
-0.0353334
-0.0284382
-0.0215107
-0.0153213
-0.00881692
-0.00376597
-0.0713132
-0.0823865
-0.0856899
-0.0843039
-0.08153
-0.0785916
-0.0753353
-0.0713949
-0.066664
-0.0613105
-0.0555105
-0.0494761
-0.0432477
-0.0370358
-0.0307492
-0.02476
-0.0187047
-0.0133476
-0.00765316
-0.0033682
-0.0543449
-0.0650362
-0.0691638
-0.0691412
-0.0676807
-0.0658492
-0.0635778
-0.0606025
-0.0568529
-0.0524856
-0.0476566
-0.0425673
-0.0372563
-0.031934
-0.0265093
-0.0213511
-0.0160992
-0.0115119
-0.00656921
-0.00299807
-0.0392278
-0.0495129
-0.0543013
-0.0554476
-0.0551428
-0.0543012
-0.0529158
-0.0508082
-0.0479397
-0.0444584
-0.0405033
-0.0362664
-0.0317844
-0.0272673
-0.0226248
-0.018223
-0.0137047
-0.00982293
-0.0055707
-0.00265742
-0.0258712
-0.0357472
-0.0410641
-0.0432068
-0.043909
-0.043941
-0.0433427
-0.0420066
-0.0399219
-0.0372295
-0.0340541
-0.0305791
-0.0268393
-0.0230447
-0.0191054
-0.0153854
-0.0115301
-0.00828745
-0.00466216
-0.00234769
-0.014192
-0.0236751
-0.0294132
-0.032399
-0.0339689
-0.0347616
-0.0348527
-0.0341941
-0.0327983
-0.0308004
-0.0283126
-0.0255107
-0.022428
-0.019274
-0.0159593
-0.0128462
-0.00958231
-0.00691113
-0.00384723
-0.00207003
-0.00411957
-0.0132389
-0.0193102
-0.023002
-0.0253099
-0.0267552
-0.0274405
-0.0273674
-0.0265682
-0.0251727
-0.0232823
-0.0210663
-0.0185564
-0.0159618
-0.0131935
-0.0106121
-0.00786728
-0.00569851
-0.00312884
-0.00182536
0.00440795
-0.0043858
-0.0107182
-0.0149929
-0.0179181
-0.0199128
-0.0211004
-0.0215235
-0.0212307
-0.0203476
-0.0189661
-0.01725
-0.0152296
-0.0131136
-0.0108136
-0.00868847
-0.00638971
-0.00465328
-0.00250937
-0.00161445
0.0114446
0.00293053
-0.0036039
-0.00835013
-0.0117796
-0.0142254
-0.0158265
-0.016659
-0.0167849
-0.0163259
-0.0153664
-0.0140652
-0.0124517
-0.010734
-0.00882415
-0.00707958
-0.00515338
-0.00377834
-0.00199069
-0.0014379
0.0170339
0.00874696
0.00205901
-0.00305627
-0.006883
-0.00968502
-0.0116136
-0.0127709
-0.0132296
-0.0131082
-0.0124848
-0.0115146
-0.0102259
-0.00882646
-0.00722877
-0.00578881
-0.00416129
-0.00307593
-0.00157427
-0.00129619
0.0212101
0.0130906
0.00628845
0.000899553
-0.00322139
-0.00628725
-0.00845869
-0.00985759
-0.0105644
-0.010695
-0.0103229
-0.00960018
-0.00855475
-0.00739369
-0.00603015
-0.00481871
-0.00341565
-0.00254781
-0.00126131
-0.00118939
0.0240207
0.0159987
0.00911025
0.00353389
-0.000784429
-0.00402545
-0.00635754
-0.00791648
-0.00878806
-0.00908624
-0.00888132
-0.00832321
-0.0074398
-0.00643732
-0.00523024
-0.0041706
-0.00291842
-0.00219409
-0.0010546
-0.00111426
0.0254925
0.0175001
0.01055
0.00486712
0.0004425
-0.00288983
-0.00530405
-0.00694377
-0.00789867
-0.00828085
-0.00816042
-0.00768393
-0.00688291
-0.00595767
-0.0048321
-0.00384327
-0.00267465
-0.0020092
-0.000963106
-0.00105702
-0.00682979
-0.0518405
-0.0918515
-0.126818
-0.15695
-0.18256
-0.204479
-0.22332
-0.239456
-0.260693
0.019545
-0.0235611
-0.061887
-0.0956904
-0.12496
-0.150428
-0.171608
-0.191316
-0.206225
-0.227654
0.0430807
0.00224278
-0.0340246
-0.0663549
-0.0943257
-0.119416
-0.139911
-0.16016
-0.175168
-0.19552
0.064007
0.0252187
-0.00930335
-0.040439
-0.0673842
-0.0921186
-0.112342
-0.13251
-0.147974
-0.166879
0.0825702
0.0455157
0.0124117
-0.0177193
-0.0438798
-0.0681166
-0.0881246
-0.10764
-0.123149
-0.140539
0.0990369
0.0635051
0.031635
0.00248411
-0.0229365
-0.0464412
-0.0660703
-0.0847047
-0.0999821
-0.116268
0.113676
0.0795225
0.0487721
0.0206033
-0.00407729
-0.0267546
-0.0459373
-0.0638078
-0.0788244
-0.0943216
0.12671
0.093808
0.0640766
0.0368466
0.0128633
-0.00904662
-0.0278107
-0.0450847
-0.0597878
-0.0745591
0.138306
0.106534
0.0777232
0.0513527
0.0280034
0.00676445
-0.0115924
-0.0283383
-0.0426547
-0.0567288
0.1486
0.117838
0.0898552
0.064258
0.0414902
0.0208511
0.00291012
-0.0133396
-0.0272658
-0.0407171
0.157697
0.127835
0.100597
0.075693
0.0534636
0.0333673
0.0158292
2.52598e-05
-0.0135561
-0.0264616
0.165686
0.136622
0.110053
0.0857672
0.0640307
0.0444181
0.0272455
0.0118294
-0.00145366
-0.0138781
0.17264
0.144281
0.118306
0.0945669
0.0732729
0.0540845
0.0372336
0.0221538
0.00912907
-0.00287933
0.17863
0.150884
0.125427
0.102164
0.0812603
0.0624396
0.0458673
0.031075
0.0182678
0.00660659
0.183681
0.156481
0.131469
0.108617
0.0880523
0.0695456
0.053209
0.038655
0.0260225
0.0146397
0.187831
0.161086
0.136469
0.113973
0.0936972
0.0754526
0.0593088
0.0449438
0.0324433
0.0212727
0.19109
0.164738
0.140463
0.118268
0.098233
0.0801998
0.0642063
0.049982
0.0375716
0.0265491
0.193504
0.167479
0.143489
0.12154
0.101696
0.0838247
0.0679389
0.0538071
0.0414438
0.0305049
0.195084
0.169327
0.14557
0.12382
0.104126
0.0863727
0.0705569
0.0564741
0.0441171
0.0331961
0.195771
0.170211
0.146621
0.125018
0.105435
0.0877651
0.0719942
0.0579385
0.0455725
0.0346355
0.647237
0.647682
0.638706
0.621388
0.596622
0.563232
0.517262
0.452832
0.368916
0.310745
0.582654
0.57616
0.556667
0.530601
0.49825
0.456384
0.400001
0.323131
0.225094
0.156805
0.51489
0.500339
0.472482
0.439143
0.399477
0.349077
0.282597
0.194261
0.0832781
0.00729962
0.438924
0.418588
0.385714
0.347183
0.301213
0.242982
0.16738
0.0693551
-0.0530509
-0.132975
0.360305
0.335356
0.29885
0.256203
0.204886
0.139887
0.0563363
-0.0492031
-0.179726
-0.259501
0.283303
0.254141
0.214572
0.168415
0.11258
0.0420062
-0.0481313
-0.160702
-0.289634
-0.37002
0.209569
0.176691
0.1347
0.0857823
0.0263955
-0.0483571
-0.143012
-0.258454
-0.383752
-0.462546
0.140069
0.104138
0.0605082
0.00978428
-0.0519728
-0.129318
-0.225792
-0.341006
-0.460769
-0.535436
0.0753681
0.0372862
-0.00680624
-0.0586013
-0.121697
-0.199732
-0.295634
-0.407604
-0.518927
-0.587921
0.0144917
-0.0229446
-0.0668008
-0.118828
-0.181912
-0.258994
-0.352083
-0.457632
-0.557593
-0.620349
1.07886
1.09559
1.11518
1.13767
1.16303
1.19096
1.22058
1.24947
1.27457
1.30298
1.0722
1.08777
1.10647
1.12804
1.15225
1.17873
1.20659
1.23333
1.25581
1.28221
1.05869
1.072
1.08897
1.10872
1.13064
1.15428
1.17864
1.20105
1.21852
1.24071
1.03805
1.04808
1.06255
1.07963
1.09821
1.11768
1.1369
1.15295
1.1631
1.1791
1.0099
1.0158
1.02711
1.04077
1.05503
1.06912
1.08169
1.08952
1.09015
1.09824
0.973896
0.974898
0.982472
0.99207
1.00118
1.00885
1.01348
1.01146
1.00061
0.999383
0.92991
0.925496
0.929005
0.93402
0.937227
0.937517
0.933067
0.919812
0.895804
0.884212
0.876604
0.86655
0.866347
0.866791
0.863683
0.85595
0.841596
0.816088
0.77762
0.754877
0.814752
0.79942
0.796079
0.791479
0.781376
0.765121
0.740392
0.702075
0.648485
0.613886
0.737962
0.724344
0.72008
0.709933
0.692223
0.667077
0.631603
0.580134
0.511202
0.464543
0.999376
0.998107
0.997357
0.997034
0.996904
0.99694
0.99723
0.997867
0.998927
1.00049
1.00264
1.00544
1.00899
1.01339
1.01877
1.02523
1.03291
1.04195
1.05252
1.06472
0.999315
0.997984
0.99714
0.996681
0.996408
0.996303
0.996453
0.996942
0.997842
0.999223
1.00116
1.00374
1.00704
1.01115
1.01619
1.02226
1.02949
1.03799
1.04792
1.0593
0.99924
0.99774
0.99666
0.995931
0.995384
0.995005
0.99487
0.99506
0.995636
0.996656
0.998184
1.0003
1.00309
1.00661
1.01097
1.01626
1.02256
1.02997
1.03857
1.04828
0.999113
0.997335
0.995892
0.994764
0.993813
0.993021
0.99245
0.992173
0.992254
0.992731
0.993645
0.995071
0.997069
0.999697
1.00302
1.00708
1.01196
1.01765
1.02421
1.0313
0.998928
0.996758
0.994828
0.993169
0.991678
0.99033
0.98917
0.988251
0.987625
0.987343
0.987452
0.987965
0.988908
0.99031
0.992202
0.994588
0.997482
1.00079
1.0045
1.00794
0.998676
0.995993
0.993452
0.99113
0.98896
0.986914
0.985012
0.983292
0.981757
0.980509
0.979544
0.978865
0.978465
0.978309
0.978379
0.9786
0.978938
0.979125
0.979149
0.977771
0.998352
0.995021
0.991745
0.988631
0.985646
0.982755
0.979953
0.977202
0.974674
0.972296
0.970027
0.967845
0.965727
0.963602
0.961396
0.958903
0.956041
0.952301
0.947798
0.940519
0.997949
0.993832
0.98969
0.985654
0.981724
0.977811
0.973892
0.970146
0.966448
0.962715
0.958918
0.955001
0.950902
0.94646
0.941563
0.935831
0.92918
0.920612
0.910508
0.895389
0.997493
0.992478
0.987373
0.982223
0.977137
0.97215
0.967233
0.962239
0.957112
0.951804
0.94626
0.940359
0.933992
0.926889
0.918913
0.909438
0.898507
0.884374
0.868127
0.843514
0.996891
0.990655
0.98441
0.978252
0.972092
0.965877
0.959557
0.953062
0.946322
0.939235
0.931699
0.92351
0.914507
0.904243
0.892545
0.878295
0.861712
0.839534
0.814608
0.77607
0.99644
0.989329
0.982195
0.974984
0.967644
0.960136
0.952413
0.944391
0.935968
0.926999
0.917336
0.906716
0.894917
0.881399
0.865887
0.847142
0.824995
0.796015
0.760228
0.706383
0.996006
0.988037
0.979996
0.971789
0.96339
0.954766
0.945856
0.936555
0.926742
0.916249
0.904913
0.89244
0.878603
0.862835
0.844858
0.823494
0.798513
0.767491
0.730782
0.685416
0.995571
0.986754
0.977811
0.968624
0.959192
0.949491
0.939444
0.928929
0.917817
0.90593
0.893098
0.879029
0.863496
0.845975
0.826205
0.803239
0.776914
0.745752
0.71005
0.667969
0.995135
0.985483
0.975645
0.965476
0.955009
0.944235
0.933068
0.921374
0.909016
0.895813
0.881597
0.866087
0.849069
0.83008
0.808898
0.784776
0.757639
0.726372
0.691289
0.650581
0.9947
0.984228
0.973513
0.962371
0.950881
0.939056
0.926808
0.913991
0.900464
0.886047
0.87058
0.8538
0.835516
0.815321
0.793047
0.768072
0.740402
0.709068
0.674557
0.635178
0.99427
0.982999
0.971435
0.959347
0.946861
0.934023
0.920746
0.906877
0.892269
0.87675
0.86017
0.84229
0.822943
0.801775
0.778665
0.753082
0.725099
0.693874
0.660017
0.621976
0.993851
0.981807
0.969432
0.956437
0.942995
0.929191
0.914947
0.9001
0.884503
0.867992
0.850431
0.831604
0.81137
0.789422
0.765676
0.73968
0.711558
0.680583
0.647389
0.610567
0.993444
0.980664
0.967524
0.953669
0.939319
0.924606
0.909459
0.893712
0.877218
0.859821
0.841399
0.821762
0.800792
0.778221
0.753998
0.727741
0.699595
0.668947
0.636384
0.600669
0.993056
0.97958
0.965725
0.951064
0.935865
0.920303
0.904322
0.887755
0.870453
0.852271
0.833101
0.812775
0.791194
0.768132
0.743557
0.717148
0.689057
0.658769
0.626808
0.592112
0.99269
0.978562
0.964048
0.948642
0.932655
0.916311
0.899569
0.882261
0.864238
0.845365
0.825547
0.804638
0.782556
0.759109
0.734277
0.707798
0.679813
0.6499
0.618511
0.584757
0.992348
0.977618
0.962501
0.946416
0.92971
0.912653
0.895222
0.877251
0.858591
0.839115
0.81874
0.797342
0.77485
0.751104
0.72609
0.699598
0.671752
0.642215
0.611364
0.578471
0.992034
0.976754
0.961094
0.944396
0.927042
0.909345
0.8913
0.872742
0.853522
0.833525
0.812676
0.790869
0.768043
0.744067
0.718929
0.692464
0.664775
0.635603
0.605249
0.573137
0.991749
0.975973
0.959829
0.942589
0.924663
0.906399
0.887812
0.86874
0.849036
0.828593
0.807342
0.785197
0.762102
0.737951
0.712733
0.68632
0.658795
0.629967
0.600066
0.568652
0.991497
0.975277
0.958709
0.941002
0.92258
0.903824
0.884764
0.865249
0.845132
0.824311
0.802727
0.780303
0.756994
0.732712
0.707445
0.6811
0.653736
0.625222
0.595726
0.564927
0.99128
0.974667
0.957736
0.93964
0.9208
0.901623
0.882161
0.86227
0.841806
0.820672
0.798812
0.776164
0.752686
0.728308
0.703015
0.676742
0.649529
0.621295
0.592152
0.561884
0.991097
0.974144
0.956918
0.938513
0.919331
0.899802
0.880002
0.8598
0.839052
0.817663
0.795582
0.772756
0.749147
0.7247
0.699396
0.673194
0.646116
0.618124
0.58928
0.559457
0.990946
0.973713
0.956268
0.937631
0.918177
0.898359
0.878285
0.857836
0.836863
0.815275
0.793021
0.770059
0.746352
0.721856
0.696551
0.670413
0.643451
0.615656
0.587058
0.557593
0.990828
0.973407
0.955821
0.937009
0.917329
0.89728
0.877
0.856368
0.835231
0.813495
0.791114
0.768053
0.744276
0.719749
0.694447
0.668362
0.641491
0.613852
0.585444
0.556253
0.990882
0.973432
0.955774
0.936754
0.916823
0.896573
0.876147
0.855397
0.834151
0.812316
0.78985
0.766724
0.742902
0.718355
0.693058
0.66701
0.640205
0.612676
0.584407
0.555416
0.990433
0.973401
0.956123
0.936918
0.916689
0.896255
0.875736
0.854923
0.833621
0.811734
0.789223
0.766064
0.742219
0.717663
0.692369
0.66634
0.639568
0.612097
0.583909
0.555055
0.642211
0.575328
0.510556
0.440572
0.367365
0.295675
0.227029
0.161595
0.099828
0.0435732
0.634374
0.565168
0.498599
0.433478
0.366031
0.299407
0.235826
0.17538
0.118795
0.067181
0.620874
0.554938
0.489196
0.428453
0.366888
0.305061
0.245702
0.189489
0.136843
0.0881064
0.606796
0.545703
0.482177
0.424435
0.367654
0.310247
0.25459
0.201885
0.152469
0.106532
0.593912
0.537256
0.476749
0.421532
0.368589
0.315183
0.262854
0.213112
0.166474
0.12294
0.58247
0.529591
0.472432
0.419622
0.369724
0.319767
0.270442
0.223274
0.178995
0.137547
0.572415
0.522763
0.468928
0.418479
0.371061
0.323997
0.277349
0.232453
0.190198
0.150563
0.56367
0.516801
0.46607
0.417897
0.372566
0.327898
0.283594
0.240719
0.200222
0.162171
0.556136
0.511672
0.463739
0.417699
0.37417
0.331489
0.289208
0.248127
0.209174
0.172513
0.549694
0.507307
0.461844
0.417754
0.375803
0.334781
0.294225
0.254727
0.217138
0.181702
0.544223
0.503623
0.460312
0.417965
0.377398
0.337769
0.298678
0.260564
0.224181
0.189827
0.539611
0.500538
0.459074
0.418257
0.378898
0.340445
0.302592
0.265678
0.230359
0.196958
0.535757
0.497972
0.458071
0.418573
0.380257
0.342796
0.305983
0.270102
0.235719
0.203155
0.532572
0.495852
0.457252
0.418866
0.381436
0.344807
0.308864
0.273858
0.240286
0.208495
0.529976
0.494113
0.456568
0.419097
0.382406
0.346466
0.311244
0.276971
0.244063
0.212837
0.527906
0.492702
0.455981
0.419238
0.383139
0.347757
0.313125
0.279466
0.247156
0.21652
0.526305
0.49157
0.455462
0.419266
0.383622
0.348675
0.314514
0.281357
0.249543
0.219366
0.525126
0.490674
0.45497
0.41915
0.38383
0.349209
0.315413
0.282655
0.251241
0.221438
0.524357
0.489996
0.454465
0.418822
0.383686
0.349287
0.315765
0.283319
0.252233
0.222757
0.524051
0.489667
0.454096
0.418403
0.383259
0.34893
0.315549
0.283296
0.252423
0.223172
)
;

boundaryField
{
    bottom
    {
        type            symmetryPlane;
    }
    right
    {
        type            fixedValue;
        value           uniform 0;
    }
    top
    {
        type            symmetryPlane;
    }
    left
    {
        type            fixedValue;
        value           uniform 1;
    }
    cylinder
    {
        type            zeroGradient;
    }
    defaultFaces
    {
        type            empty;
    }
}


// ************************************************************************* //
