/*--------------------------------*- C++ -*----------------------------------*\
| =========                 |                                                 |
| \\      /  F ield         | OpenFOAM: The Open Source CFD Toolbox           |
|  \\    /   O peration     | Version:  4.1                                   |
|   \\  /    A nd           | Web:      www.OpenFOAM.org                      |
|    \\/     M anipulation  |                                                 |
\*---------------------------------------------------------------------------*/
FoamFile
{
    version     2.0;
    format      ascii;
    class       surfaceScalarField;
    location    "6";
    object      phi;
}
// * * * * * * * * * * * * * * * * * * * * * * * * * * * * * * * * * * * * * //

dimensions      [0 3 -1 0 0 0 0];

internalField   nonuniform List<scalar> 
3890
(
0.000508844
0.00159023
-0.00209907
0.00301177
-0.0016812
-0.000821729
0.00812673
-0.00922617
0.00411121
0.015932
-0.0194249
0.0116196
0.0258135
-0.0304988
0.0206173
0.0367196
-0.0408662
0.0299602
0.0475749
-0.0495246
0.0386693
0.0575762
-0.056161
0.0461597
0.0661343
-0.0607181
0.05216
-0.0635945
0.056891
0.0728378
0.000806426
0.000783803
0.00425971
-0.00513448
0.0108601
-0.0158266
0.0201378
-0.0287026
0.0308153
-0.0411764
0.0414944
-0.0515453
0.0511719
-0.0592021
0.0593319
-0.064321
0.0659457
-0.0673319
-0.0690684
0.0714196
0.00120012
-0.000416313
0.00575445
-0.00968882
0.0137443
-0.0238165
0.0238734
-0.0388316
0.0343394
-0.0516423
0.0437923
-0.0609982
0.051615
-0.0670248
0.0577657
-0.0704717
0.0625866
-0.0721528
-0.0729104
0.0664285
0.00167735
-0.00209366
0.00737071
-0.0153822
0.0163512
-0.032797
0.0264753
-0.0489557
0.0358409
-0.061008
0.043523
-0.0686803
0.049423
-0.0729247
0.0538802
-0.0749289
0.0573714
-0.075644
-0.0757948
0.0602558
0.00221833
-0.00431199
0.00891512
-0.022079
0.0182457
-0.0421276
0.0275641
-0.0582741
0.0353236
-0.0687675
0.0411721
-0.0745288
0.045422
-0.0771747
0.0485819
-0.0780889
0.0511195
-0.0781815
-0.0780122
0.0533369
0.00278437
-0.00709636
0.0101588
-0.0294534
0.0191456
-0.0511144
0.0271322
-0.0662607
0.0331641
-0.0747993
0.0373812
-0.0787459
0.0403208
-0.0801142
0.042515
-0.080283
0.0443503
-0.0800169
-0.0796652
0.0460032
0.00331503
-0.0104114
0.0109075
-0.0370459
0.0189961
-0.059203
0.025427
-0.0726916
0.0298391
-0.0792114
0.032697
-0.0816038
0.03461
-0.0820273
0.0360467
-0.0817197
0.0372825
-0.0812527
-0.0808209
0.0384383
0.00373458
-0.014146
0.0110553
-0.0443666
0.0179134
-0.0660611
0.02278
-0.0775583
0.0257696
-0.082201
0.0275161
-0.0833503
0.0286015
-0.0831127
0.0293967
-0.0825149
0.0300878
-0.0819438
-0.0814714
0.0307384
0.00397445
-0.0181204
0.0106102
-0.0510024
0.0160972
-0.0715481
0.0195056
-0.0809666
0.0212789
-0.0839742
0.0221044
-0.0841759
0.0224861
-0.0834944
0.0226968
-0.0827256
0.0228485
-0.0820954
-0.0816016
0.0229787
0.00399623
-0.0221166
0.00967648
-0.0566827
0.0137676
-0.0756392
0.0158633
-0.0830623
0.0165984
-0.0847094
0.0166349
-0.0842123
0.0163819
-0.0832414
0.0160314
-0.0823751
0.0156509
-0.0817149
0.0152528
-0.0812036
-0.000936445
0.000936445
-0.00267486
0.00173841
-0.00473319
0.00205833
-0.00686005
0.00212686
-0.00890587
0.00204582
-0.0107718
0.0018659
-0.0123898
0.00161808
-0.0137198
0.00132992
-0.0147566
0.00103682
0.000792496
-0.0155491
-0.000816766
0.00175321
-0.00234246
0.00326411
-0.00413866
0.00385453
-0.00595683
0.00394503
-0.0076431
0.0037321
-0.00909024
0.00331303
-0.0102173
0.00274518
-0.0109676
0.00208016
-0.0113141
0.00138331
0.000766268
-0.0112878
-0.000607325
0.00236054
-0.00175849
0.00441528
-0.00307712
0.00517316
-0.00432844
0.00519635
-0.00535529
0.00475895
-0.00603974
0.00399749
-0.00628293
0.00298836
-0.00600217
0.00179941
-0.00513428
0.000515412
-0.000696931
-0.00367108
-0.000364524
0.00272506
-0.00105367
0.00510442
-0.00176316
0.00588265
-0.00227497
0.00570816
-0.00243163
0.00491561
-0.00210695
0.00367281
-0.00119174
0.00207315
0.000425315
0.000182348
0.00282301
-0.00188228
-0.00395149
0.00607758
-0.000145033
0.00287009
-0.000369327
0.00532872
-0.000428831
0.00594215
-0.000118644
0.00539797
0.000729703
0.00406726
0.00224838
0.00215413
0.00455256
-0.000231027
0.00773219
-0.00299728
0.011853
-0.00600307
-0.00930077
0.0172022
1.2429e-05
0.00285766
0.000193703
0.00514744
0.000765053
0.0053708
0.00193624
0.00422678
0.00388936
0.00211414
0.00677935
-0.000735856
0.0107189
-0.00417063
0.0157714
-0.00804974
0.0218653
-0.0120969
-0.0168489
0.0294134
0.000100306
0.00275736
0.000617521
0.00463023
0.00180038
0.00418795
0.00388822
0.00213894
0.00709862
-0.00109626
0.0115972
-0.00523446
0.0174502
-0.0100236
0.0246236
-0.0152231
0.0328587
-0.020332
-0.0264214
0.0424312
0.000146851
0.00261051
0.000980414
0.00379666
0.0028284
0.00233996
0.00599022
-0.00102288
0.0107035
-0.00580955
0.0170696
-0.0116005
0.0250058
-0.0179599
0.0342486
-0.0244659
0.0443925
-0.0304759
-0.0371935
0.0551647
0.000200733
0.00240977
0.00141842
0.00257897
0.00409957
-0.000341185
0.00859674
-0.00552006
0.0150746
-0.0122874
0.0234149
-0.0199407
0.0332224
-0.0277674
0.043931
-0.0351745
0.0550632
-0.0416082
-0.0477456
0.0656153
0.0003107
0.00206794
0.00583797
0.0119375
0.0202674
0.0302868
0.0411887
0.0521739
0.0627257
0.0718712
-0.0154389
-0.000110199
-0.0150852
-0.000353662
-0.0144588
-0.000626384
-0.0135565
-0.000902335
-0.0123794
-0.00117708
-0.0109386
-0.00144088
-0.0092444
-0.00169416
-0.00731079
-0.00193362
-0.00515495
-0.00215584
-0.00278288
-0.00237206
-0.000228713
-0.00255417
0.00248566
-0.00271437
0.00534339
-0.00285773
0.00832404
-0.00298065
0.0114093
-0.00308531
0.0145849
-0.00317553
0.0178417
-0.0032568
0.0211828
-0.00334111
0.0246098
-0.00342699
-0.00355736
-0.0110067
-0.000391297
-0.0105027
-0.000857695
-0.00974951
-0.00137957
-0.00874587
-0.00190598
-0.00747638
-0.00244656
-0.00596605
-0.00295121
-0.00422029
-0.00343992
-0.00224916
-0.00390475
-6.67235e-05
-0.00433827
0.00228285
-0.00472164
0.00480788
-0.0050792
0.00748605
-0.00539255
0.0102912
-0.0056629
0.0132024
-0.00589184
0.0162006
-0.00608349
0.0192695
-0.00624449
0.0223971
-0.00638437
0.0255776
-0.00652162
0.0288138
-0.00666312
-0.0068636
-0.0030256
-0.00103678
-0.00223092
-0.00165238
-0.00122829
-0.00238219
-1.73324e-06
-0.00313254
0.00139929
-0.00384759
0.0030155
-0.00456742
0.00483568
-0.0052601
0.0068467
-0.00591576
0.00903235
-0.00652393
0.0113867
-0.00707596
0.0138775
-0.00757
0.0164858
-0.00800085
0.0191902
-0.00836737
0.0219695
-0.00867105
0.0248039
-0.00891795
0.0276748
-0.0091154
0.0305686
-0.00927818
0.0334671
-0.00942011
0.0363708
-0.00956678
-0.00976105
0.00716467
-0.00212388
0.00832789
-0.00281559
0.00963187
-0.00368618
0.0110953
-0.00459597
0.0127355
-0.00548778
0.0145276
-0.00635948
0.0164687
-0.00720124
0.0185515
-0.00799857
0.0207646
-0.008737
0.0230935
-0.00940487
0.0255182
-0.00999467
0.028018
-0.0105007
0.0305726
-0.010922
0.0331607
-0.0112591
0.0357641
-0.0115214
0.0383615
-0.0117128
0.0409429
-0.0118595
0.0434785
-0.0119557
0.0459756
-0.0120639
-0.0121657
0.0187077
-0.00362932
0.0202423
-0.00435017
0.0218685
-0.00531243
0.0236036
-0.00633106
0.0254466
-0.00733075
0.0273893
-0.00830225
0.029427
-0.00923892
0.0315525
-0.0101241
0.0337549
-0.0109394
0.0360197
-0.0116696
0.0383296
-0.0123046
0.0406655
-0.0128366
0.0430093
-0.0132658
0.0453407
-0.0135905
0.047646
-0.0138267
0.0499026
-0.0139695
0.0521083
-0.0140652
0.0542263
-0.0140738
0.0562788
-0.0141164
-0.0140659
0.0311966
-0.00541251
0.0329801
-0.0061336
0.0348208
-0.0071531
0.0367183
-0.00822857
0.0386677
-0.00928014
0.0406679
-0.0103025
0.0427141
-0.0112851
0.0447966
-0.0122066
0.0469034
-0.0130462
0.0490202
-0.0137864
0.0511317
-0.0144161
0.0532206
-0.0149255
0.0552727
-0.0153179
0.0572709
-0.0155887
0.0592081
-0.0157638
0.0610641
-0.0158255
0.0628457
-0.0158468
0.064516
-0.0157441
0.066112
-0.0157123
-0.0154893
0.04422
-0.00720135
0.0460356
-0.00794917
0.0478781
-0.00899559
0.0497376
-0.0100881
0.0516179
-0.0111604
0.053517
-0.0122016
0.0554234
-0.0131916
0.0573233
-0.0141064
0.0592034
-0.0149263
0.0610502
-0.0156332
0.0628509
-0.0162168
0.0645922
-0.0166668
0.0662659
-0.0169916
0.0678606
-0.0171834
0.0693766
-0.0172799
0.0708
-0.0172488
0.0721449
-0.0171917
0.0733807
-0.0169799
0.0745514
-0.0168831
-0.0165063
0.0566954
-0.00873207
0.0583134
-0.00956724
0.0599358
-0.0106179
0.0615608
-0.0117132
0.0631992
-0.0127987
0.064837
-0.0138394
0.0664529
-0.0148074
0.06803
-0.0156836
0.0695568
-0.0164531
0.0710228
-0.0170992
0.0724216
-0.0176155
0.073747
-0.0179922
0.0749994
-0.0182441
0.0761755
-0.0183594
0.0772825
-0.018387
0.078313
-0.0182793
0.0792841
-0.0181627
0.0801719
-0.0178677
0.081018
-0.0177292
-0.017245
0.0668297
-0.00994652
0.0681744
-0.010912
0.0694947
-0.0119382
0.0708066
-0.0130251
0.0721135
-0.0141056
0.073392
-0.015118
0.0746229
-0.0160383
0.0757968
-0.0168575
0.0769108
-0.0175671
0.0779648
-0.0181532
0.0789625
-0.0186133
0.0799076
-0.0189372
0.0808073
-0.0191438
0.0816642
-0.0192163
0.0824875
-0.0192103
0.0832725
-0.0190643
0.0840317
-0.0189219
0.0847445
-0.0185805
0.0854376
-0.0184222
-0.0178674
0.0732935
-0.0113688
0.0744543
-0.0120728
0.0755165
-0.0130004
0.0765109
-0.0140195
0.0774496
-0.0150443
0.0783412
-0.0160096
0.0791907
-0.0168879
0.0800026
-0.0176693
0.0807844
-0.0183489
0.0815446
-0.0189135
0.0822929
-0.0193616
0.0830356
-0.0196799
0.08378
-0.0198882
0.0845268
-0.0199631
0.0852802
-0.0199636
0.0860333
-0.0198175
0.086788
-0.0196766
0.0875284
-0.019321
0.0882567
-0.0191505
-0.0185308
0.101202
-0.0102589
-0.102312
0.100488
-0.0113589
0.0998132
-0.0123254
0.0991067
-0.013313
0.0983494
-0.0142869
0.0975355
-0.0151957
0.0966632
-0.0160156
0.0957315
-0.0167377
0.0947433
-0.0173607
0.0937059
-0.017876
0.0926308
-0.0182865
0.0915307
-0.0185798
0.0904189
-0.0187764
0.0893073
-0.0188516
0.0882058
-0.0188622
0.0871243
-0.0187359
0.0860643
-0.0186166
0.0850359
-0.0182926
0.0840237
-0.0181383
-0.0175511
0.104244
-0.00932783
-0.105175
0.103367
-0.0104817
0.102545
-0.0115029
0.101691
-0.0124593
0.100777
-0.0133727
0.0998049
-0.0142239
0.0987828
-0.0149935
0.0977153
-0.0156701
0.096607
-0.0162524
0.0954656
-0.0167345
0.0943003
-0.0171213
0.0931223
-0.0174018
0.0919417
-0.0175958
0.090769
-0.0176788
0.089611
-0.0177042
0.0884767
-0.0176016
0.087366
-0.0175059
0.0862888
-0.0172154
0.0852321
-0.0170816
-0.0165445
0.105553
-0.00843649
-0.106444
0.104657
-0.00958571
0.103773
-0.0106194
0.102867
-0.0115529
0.10191
-0.0124159
0.100899
-0.0132129
0.0998403
-0.0139346
0.0987405
-0.0145703
0.0976061
-0.015118
0.0964444
-0.0155728
0.0952637
-0.0159406
0.0940739
-0.016212
0.0928836
-0.0164056
0.0917025
-0.0164977
0.0905359
-0.0165376
0.0893925
-0.0164583
0.0882715
-0.0163849
0.0871845
-0.0161284
0.0861177
-0.0160147
-0.0155226
0.105884
-0.00763812
-0.106683
0.10504
-0.00874111
0.104172
-0.0097518
0.103274
-0.0106546
0.102329
-0.0114713
0.101333
-0.012217
0.100291
-0.012892
0.0992091
-0.0134886
0.0980954
-0.0140044
0.0969571
-0.0144344
0.0958015
-0.0147851
0.0946373
-0.0150478
0.093472
-0.0152403
0.092314
-0.0153397
0.0911682
-0.0153917
0.0900425
-0.0153326
0.0889363
-0.0152787
0.0878607
-0.0150528
0.0868029
-0.0149569
-0.0145094
0.10574
-0.00693554
-0.106443
0.104972
-0.00797316
0.104158
-0.0089376
0.103301
-0.00979739
0.102396
-0.0105665
0.101442
-0.0112627
0.100442
-0.0118921
0.0994034
-0.0124499
0.098333
-0.0129341
0.0972382
-0.0133396
0.0961257
-0.0136726
0.0950032
-0.0139253
0.0938773
-0.0141144
0.0927556
-0.014218
0.0916425
-0.0142786
0.0905457
-0.0142358
0.0894646
-0.0141975
0.0884102
-0.0139985
0.0873711
-0.0139178
-0.0135108
0.105463
-0.00631851
-0.10608
0.104769
-0.00727995
0.104015
-0.00818273
0.103207
-0.00898973
0.102349
-0.00970874
0.101443
-0.0103562
0.100491
-0.0109406
0.0995008
-0.0114596
0.0984783
-0.0119116
0.0974305
-0.0122918
0.0963638
-0.0126059
0.0952853
-0.0128467
0.0942007
-0.0130298
0.0931173
-0.0131346
0.092039
-0.0132003
0.0909733
-0.01317
0.0899197
-0.013144
0.0888892
-0.0129679
0.0878714
-0.0128999
-0.01253
0.105218
-0.00576871
-0.105768
0.104585
-0.00664671
0.103881
-0.00747938
0.103119
-0.00822774
0.102305
-0.00889451
0.101442
-0.00949347
0.100535
-0.0100334
0.0995889
-0.0105134
0.0986101
-0.0109327
0.097605
-0.0112868
0.09658
-0.0115808
0.0955413
-0.011808
0.0944945
-0.011983
0.0934461
-0.0120862
0.0923999
-0.0121542
0.0913632
-0.0121333
0.0903356
-0.0121164
0.089328
-0.0119603
0.0883309
-0.0119028
-0.0115669
0.105056
-0.00526419
-0.105561
0.104467
-0.00605777
0.103805
-0.00681722
0.103081
-0.00750401
0.102304
-0.0081171
0.101478
-0.00866748
0.100608
-0.00916333
0.0996989
-0.00960447
0.098757
-0.00999075
0.0977882
-0.010318
0.0967984
-0.010591
0.0957937
-0.0108033
0.0947791
-0.0109684
0.0937609
-0.011068
0.0927426
-0.0111358
0.0917312
-0.0111219
0.0907266
-0.0111118
0.0897396
-0.0109733
0.0887612
-0.0109244
-0.0106201
0.104976
-0.00478867
-0.105452
0.104419
-0.00550076
0.103789
-0.00618694
0.103096
-0.00681101
0.102348
-0.00736965
0.101552
-0.00787142
0.100712
-0.00832349
0.0998339
-0.008726
0.0989223
-0.00907916
0.0979835
-0.00937919
0.0970229
-0.00963045
0.0960464
-0.00982682
0.0950587
-0.00998074
0.0940659
-0.0100752
0.0930711
-0.010141
0.0920814
-0.0101322
0.0910966
-0.010127
0.0901274
-0.0100041
0.0891655
-0.00996255
-0.00968787
0.10496
-0.00433233
-0.105416
0.104426
-0.00496645
0.103819
-0.00558073
0.103151
-0.00614214
0.102427
-0.00664621
0.101655
-0.00709951
0.10084
-0.00750815
0.0999863
-0.00787233
0.0990995
-0.0081924
0.0981853
-0.00846496
0.0972488
-0.00869394
0.0962956
-0.00887363
0.0953302
-0.00901538
0.0943585
-0.00910346
0.0933835
-0.00916603
0.0924122
-0.00916086
0.0914443
-0.00915915
0.0904907
-0.00905044
0.0895432
-0.00901507
-0.0087686
0.104989
-0.00388848
-0.105433
0.10447
-0.00444797
0.103882
-0.00499236
0.103232
-0.005492
0.102528
-0.0059419
0.101775
-0.00634711
0.10098
-0.00671274
0.100146
-0.0070389
0.0992799
-0.00732599
0.0983859
-0.00757095
0.0974692
-0.0077773
0.0965354
-0.00793979
0.0955886
-0.00806863
0.0946347
-0.00814948
0.0936764
-0.00820775
0.0927207
-0.00820516
0.0917674
-0.00820583
0.0908271
-0.00811019
0.0898922
-0.00808014
-0.00786073
0.105046
-0.00345211
-0.105482
0.104538
-0.00394025
0.103963
-0.00441708
0.103327
-0.00485628
0.102638
-0.00525278
0.101902
-0.00561044
0.101122
-0.00593352
0.100305
-0.00622202
0.0994558
-0.00647632
0.0985785
-0.00669366
0.0976783
-0.00687717
0.0967606
-0.00702208
0.0958295
-0.00713745
0.0948904
-0.00721041
0.0939462
-0.0072636
0.0930038
-0.00726276
0.092063
-0.00726496
0.0911343
-0.00718153
0.0902103
-0.00715612
-0.00696287
0.105119
-0.00301968
-0.105551
0.104618
-0.00343969
0.104053
-0.0038513
0.103428
-0.00423156
0.102751
-0.0045756
0.102027
-0.0048864
0.101261
-0.00516746
0.100457
-0.00541869
0.0996214
-0.00564042
0.0987579
-0.00583019
0.0978715
-0.00599074
0.0969672
-0.0061178
0.096049
-0.00621932
0.0951225
-0.0062839
0.0941903
-0.00633141
0.0932593
-0.00633169
0.092329
-0.00633474
0.0914104
-0.00626287
0.0904958
-0.00624158
-0.00607376
0.105198
-0.0025889
-0.105629
0.104702
-0.00294369
0.104143
-0.0032923
0.103527
-0.00361513
0.102859
-0.00390773
0.102145
-0.00417241
0.101389
-0.004412
0.100597
-0.00462638
0.0997724
-0.00481578
0.0989203
-0.00497809
0.0980452
-0.00511562
0.0971521
-0.00522467
0.0962448
-0.00531204
0.0953288
-0.00536788
0.0944066
-0.00540925
0.0934851
-0.00541018
0.0925639
-0.00541358
0.0916538
-0.00535275
0.0907474
-0.00533515
-0.00519221
0.105276
-0.00215832
-0.105707
0.104783
-0.00245045
0.104229
-0.00273805
0.103619
-0.00300486
0.102958
-0.00324703
0.102252
-0.00346631
0.101505
-0.00366498
0.100721
-0.00384291
0.0999059
-0.00400025
0.099063
-0.00413522
0.0981971
-0.00424974
0.0973131
-0.00434067
0.0964148
-0.00441369
0.0955074
-0.00446053
0.0945936
-0.00449542
0.0936801
-0.00449665
0.0927665
-0.00449999
0.0918635
-0.00444981
0.090964
-0.00443558
-0.00431707
0.105348
-0.00172714
-0.10578
0.104857
-0.00195878
0.104306
-0.00218708
0.1037
-0.00239911
0.103045
-0.00259173
0.102345
-0.00276628
0.101604
-0.00292455
0.100828
-0.0030664
0.100019
-0.00319194
0.0991839
-0.00329972
0.0983254
-0.00339124
0.0974487
-0.00346402
0.0965576
-0.00352253
0.0956573
-0.00356021
0.0947502
-0.00358835
0.0938432
-0.00358964
0.0929358
-0.00359259
0.0920388
-0.0035528
0.0911448
-0.00354166
-0.00344724
0.10541
-0.00129507
-0.105842
0.104919
-0.00146798
0.10437
-0.00163833
0.103767
-0.00179659
0.103116
-0.00194041
0.102421
-0.00207082
0.101685
-0.00218913
0.100914
-0.00229523
0.100111
-0.00238917
0.0992815
-0.0024699
0.0984287
-0.00253847
0.0975578
-0.00259308
0.0966722
-0.00263699
0.0957774
-0.0026654
0.0948757
-0.00268658
0.0939738
-0.00268779
0.0930713
-0.00269008
0.092179
-0.00266051
0.0912896
-0.00265224
-0.00258166
0.105457
-0.000862336
-0.105889
0.104966
-0.00097772
0.104419
-0.00109111
0.103819
-0.00119632
0.10317
-0.00129192
0.102478
-0.00137864
0.101746
-0.00145734
0.100979
-0.00152797
0.10018
-0.0015905
0.0993548
-0.00164428
0.0985062
-0.00168993
0.0976395
-0.0017264
0.0967582
-0.00175562
0.0958675
-0.00177472
0.0949697
-0.00178875
0.0940717
-0.00178983
0.0931728
-0.00179119
0.0922841
-0.00177182
0.091398
-0.00176614
-0.00171933
0.105487
-0.000429626
-0.10592
0.104997
-0.000488205
0.104451
-0.000545126
0.103853
-0.000597669
0.103206
-0.000645349
0.102516
-0.000688656
0.101787
-0.000727982
0.101022
-0.000763317
0.100226
-0.000794544
0.0994034
-0.00082147
0.0985577
-0.000844213
0.0976939
-0.000862556
0.0968153
-0.000877007
0.0959274
-0.00088683
0.0950321
-0.000893466
0.0941369
-0.000894625
0.0932401
-0.000894432
0.0923544
-0.000886087
0.0914697
-0.000881444
-0.000859983
0.1055
-0.105929
0.105012
0.104466
0.103869
0.103223
0.102535
0.101807
0.101044
0.100249
0.0994275
0.0985833
0.0977207
0.0968437
0.0959569
0.0950634
0.0941688
0.0932744
0.0923883
0.0915068
0.0823969
0.0137046
-0.0808487
0.0841917
0.0211838
0.0862473
0.0286828
0.088566
0.0361195
0.0911462
0.043423
0.0940094
0.0504737
0.0968361
0.0574291
0.0999525
0.0633122
0.101295
0.0700766
0.0718212
0.0820207
0.0122941
-0.0806102
0.0837193
0.0194852
0.0857094
0.0266927
0.0880312
0.0337978
0.0905846
0.0408696
0.0935927
0.0474656
0.0965528
0.054469
0.100108
0.0597567
0.10316
0.0670254
0.0698054
0.0817999
0.0110412
-0.080547
0.0833788
0.0179062
0.08525
0.0248215
0.0875116
0.0315362
0.0899909
0.0383902
0.0929596
0.0444969
0.096051
0.0513777
0.0995138
0.0562938
0.103378
0.0631607
0.0667396
0.0817051
0.00992401
-0.0805879
0.0831728
0.0164385
0.0849358
0.0230586
0.0871032
0.0293687
0.0895387
0.0359548
0.0923853
0.0416503
0.0955879
0.0481751
0.0989378
0.0529439
0.102993
0.0591058
0.0630496
0.0817042
0.00891464
-0.0806949
0.0830747
0.015068
0.0847637
0.0213696
0.0868348
0.0272977
0.089252
0.0335376
0.0919866
0.0389156
0.0952101
0.0449516
0.0985308
0.0496232
0.1025
0.0551368
0.0591065
0.0817687
0.0079919
-0.080846
0.0830534
0.0137833
0.0846913
0.0197317
0.0866826
0.0253063
0.0890769
0.0311433
0.0917427
0.0362499
0.0949112
0.041783
0.0982337
0.0463007
0.102075
0.0512955
0.0551018
0.0818762
0.0071425
-0.0810268
0.083087
0.0125726
0.0846804
0.0181382
0.0866138
0.0233729
0.0889711
0.028786
0.0916034
0.0336176
0.0946992
0.0386873
0.0980226
0.0429773
0.101776
0.0475419
0.0511104
0.0820108
0.00635848
-0.0812268
0.0831601
0.0114233
0.0847097
0.0165886
0.0866033
0.0214793
0.0889194
0.0264699
0.091537
0.031
0.0945782
0.035646
0.0978969
0.0396586
0.1016
0.0438384
0.04715
0.0821615
0.00563392
-0.0814369
0.0832602
0.0103246
0.0847679
0.0150809
0.0866333
0.0196139
0.0889137
0.0241896
0.0915227
0.028391
0.0945309
0.0326378
0.0978412
0.0363484
0.101516
0.0401637
0.0432145
0.0823202
0.00496311
-0.0816494
0.083377
0.00926785
0.0848471
0.0136107
0.0866905
0.0177706
0.0889432
0.0219369
0.091544
0.0257902
0.0945326
0.0296492
0.0978351
0.0330458
0.101494
0.0365045
0.0392924
0.0824807
0.00434009
-0.0818577
0.0835017
0.00824685
0.0849398
0.0121727
0.0867643
0.015946
0.0889961
0.019705
0.0915889
0.0231975
0.0945653
0.0266727
0.0978636
0.0297476
0.101515
0.032853
0.0353748
0.0826377
0.00375891
-0.0820565
0.0836278
0.00725671
0.085039
0.0107616
0.086847
0.014138
0.0890632
0.0174889
0.0916492
0.0206115
0.0946184
0.0237035
0.0979155
0.0264504
0.101564
0.0292047
0.0314562
0.0827866
0.00321387
-0.0822416
0.0837502
0.00629319
0.085139
0.00937279
0.086933
0.012344
0.0891373
0.0152845
0.0917183
0.0180305
0.0946833
0.0207385
0.0979815
0.0231523
0.101629
0.025557
0.027534
0.0829238
0.00269988
-0.0824098
0.0838647
0.00535227
0.0852351
0.00800242
0.0870174
0.0105617
0.0892129
0.013089
0.0917907
0.0154527
0.0947533
0.0177759
0.0980536
0.019852
0.101702
0.0219086
0.0236071
0.0830462
0.00220828
-0.0825546
0.0839679
0.00443064
0.0853233
0.00664697
0.0870963
0.00878865
0.0892853
0.0109
0.0918612
0.0128769
0.0948228
0.0148143
0.0981259
0.0165489
0.101776
0.0182588
0.0196757
0.0831519
0.0017393
-0.0826829
0.0840578
0.0035247
0.0854013
0.00530352
0.0871669
0.00702301
0.0893511
0.00871584
0.091926
0.010302
0.0948876
0.0118527
0.0981935
0.013243
0.101845
0.0146076
0.0157408
0.083239
0.00128786
-0.0827876
0.0841321
0.00263156
0.0854663
0.00396939
0.0872264
0.0052629
0.0894073
0.00653491
0.091982
0.00772732
0.094944
0.00889068
0.0982525
0.00993448
0.101905
0.0109553
0.011804
0.0833057
0.000850123
-0.082868
0.084189
0.00174827
0.0855162
0.00264218
0.0872724
0.00350666
0.0894514
0.00435599
0.0920264
0.00515228
0.0949892
0.00592786
0.0982998
0.0066239
0.101952
0.0073027
0.00786724
0.08335
0.000423298
-0.0829232
0.0842264
0.000871827
0.0855489
0.00131973
0.0873028
0.00175277
0.0894808
0.00217798
0.0920566
0.00257646
0.0950202
0.00296422
0.0983322
0.00331191
0.101984
0.00365053
0.00393201
0.083372
-0.0829487
0.0842438
0.0855636
0.0873163
0.0894943
0.0920708
0.095035
0.0983469
0.101997
0.0396688
0.0548333
-0.0504037
-0.0440984
0.0348532
0.0553226
-0.050507
0.0300202
0.056142
-0.051309
0.0251758
0.0573351
-0.0524907
0.0202974
0.0588665
-0.0539881
0.0153715
0.0607863
-0.0558604
0.0104227
0.0630177
-0.0580689
0.00566179
0.06434
-0.059579
0.0017522
0.0596004
-0.0556908
0.0352115
-0.0334593
0.0361346
0.0594255
-0.0407267
0.0315667
0.0598905
0.0270233
0.0606854
0.0224954
0.061863
0.0179468
0.0634151
0.0133581
0.065375
0.00878344
0.0675924
0.00449372
0.0686297
0.0011869
0.0629072
0.0363984
0.0322909
0.0636825
-0.0365479
0.0280038
0.0641776
0.0237362
0.064953
0.0195034
0.0660958
0.0152802
0.0676382
0.0110505
0.0696047
0.00689889
0.071744
0.00316363
0.0723649
0.000534907
0.0655359
0.0369333
0.0278765
0.0675669
-0.031761
0.0239582
0.068096
0.0200402
0.0688709
0.0161551
0.069981
0.012297
0.0714963
0.00846601
0.0734357
0.00477502
0.075435
0.0016656
0.0754744
-0.000178224
0.0673798
0.0367551
0.0229094
0.0710627
-0.0264052
0.0193963
0.071609
0.0158903
0.072377
0.0124156
0.0734556
0.00897642
0.0749355
0.00559895
0.0768132
0.00243677
0.0785972
-0.000104062
0.0780152
-0.000844765
0.0681205
0.0359103
0.017416
0.0741234
-0.0204767
0.0143558
0.0746693
0.0113099
0.0754228
0.00829729
0.0764682
0.00533082
0.0779019
0.00247029
0.0796737
-5.38581e-05
0.0811213
-0.00161172
0.0795731
-0.00153251
0.0680413
0.0343778
0.0114654
0.076684
-0.014026
0.00890259
0.0772321
0.00635308
0.0779723
0.00384373
0.0789776
0.00140035
0.0803453
-0.00088088
0.081955
-0.0026667
0.0829071
-0.00333907
0.0802454
-0.00221285
0.066915
0.032165
0.005121
0.0787172
-0.00715422
0.00307508
0.0792781
0.00106551
0.0799819
-0.000913684
0.0809568
-0.00281661
0.0822482
-0.00446409
0.0836024
-0.00545895
0.083902
-0.00510192
0.0798884
-0.00285298
0.0646661
0.029312
-0.00155418
0.0803331
-6.17368e-05
-0.00306302
0.0807869
-0.00453978
0.0814587
-0.00597014
0.0823871
-0.00726999
0.0835481
-0.0082161
0.0845485
-0.00830892
0.0839948
-0.00680904
0.0783885
-0.00339943
0.0612565
0.0259126
-0.00852784
0.00765737
-0.00945583
-0.0103722
-0.0112265
-0.0118908
-0.0120516
-0.0111191
-0.00836976
-0.00379593
0.0483282
0.00460813
-0.0529364
0.0435552
0.00477306
0.0385928
0.00496234
0.03342
0.00517283
0.0280074
0.00541259
0.0223152
0.00569221
0.0162988
0.00601637
0.00998857
0.00631026
0.00388037
0.00610819
0.00388037
0.0483658
0.00925833
-0.053016
0.0435579
0.00958095
0.0385688
0.00995147
0.0333772
0.0103644
0.0279537
0.0108361
0.022258
0.0113879
0.016244
0.0120304
0.00994166
0.0126125
0.00386204
0.0121878
0.00774241
0.0484103
0.013987
-0.0531389
0.0435378
0.0144534
0.0384991
0.0149902
0.0332726
0.0155908
0.0278286
0.0162802
0.0221265
0.01709
0.0161212
0.0180357
0.00984626
0.0188874
0.00381033
0.0182238
0.0115527
0.0484028
0.0188147
-0.0532306
0.0434487
0.0194075
0.0383476
0.0200913
0.0330784
0.02086
0.0276115
0.0217471
0.0219066
0.0227949
0.0159199
0.0240224
0.00968993
0.0251174
0.00372903
0.0241846
0.0152818
0.0482649
0.0237461
-0.0531963
0.0432248
0.0244476
0.0380596
0.0252565
0.0327508
0.0261688
0.0272688
0.0272292
0.021573
0.0284908
0.0156215
0.0299738
0.00946142
0.0312775
0.00361153
0.0300345
0.0188933
0.047927
0.0287577
-0.0529386
0.0428125
0.0295622
0.0375901
0.0304789
0.0322506
0.0315083
0.0267669
0.0327129
0.021098
0.0341597
0.0152051
0.0358667
0.00914682
0.0373357
0.00345134
0.03573
0.0223446
0.0472602
0.0338464
-0.0523489
0.0420809
0.0347415
0.0368267
0.0357331
0.0314908
0.0368441
0.0260398
0.0381639
0.0204321
0.0397674
0.0146353
0.0416635
0.00872502
0.043246
0.00324229
0.0412127
0.0255869
0.0463708
0.0389864
-0.0515108
0.0411136
0.0399987
0.0358359
0.0410108
0.0305183
0.0421617
0.0251128
0.0435695
0.0195825
0.0452977
0.0139074
0.0473386
0.00818697
0.0489665
0.00298432
0.0464154
0.0285712
0.044671
0.044344
-0.0500286
0.0393926
0.0452771
0.0342379
0.0461655
0.0290644
0.0473352
0.0238084
0.0488255
0.0184441
0.050662
0.0129647
0.052818
0.0075012
0.05443
0.0026493
0.0512673
0.0312205
0.0429522
-0.0490119
0.0377223
0.0325788
0.0274233
0.0222607
0.0170623
0.0118114
0.00666228
0.00223877
0.0577371
-0.000238374
0.0579769
-0.000239795
0.0582102
-0.000233277
0.0584301
-0.000219899
0.0586301
-0.000199996
0.0588043
-0.00017418
0.0589466
-0.000142316
0.0590501
-0.000103513
0.0591064
-5.63386e-05
0.0591043
2.13341e-06
0.0590388
6.5474e-05
0.0588972
0.000141649
0.0586664
0.000230731
0.0583319
0.000334574
0.0578764
0.000455435
0.05728
0.000596467
0.0565199
0.000760091
0.0555664
0.000953523
0.0543955
0.00117087
0.00145912
0.0581451
-0.000470884
0.0583756
-0.000470262
0.0585963
-0.000453958
0.0588022
-0.000425819
0.0589878
-0.000385644
0.0591473
-0.000333648
0.0592743
-0.000269359
0.0593622
-0.00019134
0.0594024
-9.65217e-05
0.0593857
1.87971e-05
0.0593035
0.000147664
0.0591446
0.000300598
0.058896
0.00047928
0.058543
0.000687539
0.0580686
0.000929838
0.0574525
0.00121265
0.056672
0.00154058
0.0556965
0.00192901
0.054503
0.0023643
0.00294616
0.0589483
-0.000674311
0.0591507
-0.000672671
0.0593434
-0.00064667
0.0595208
-0.000603193
0.0596771
-0.000541997
0.0598065
-0.000463029
0.0599023
-0.000365212
0.0599579
-0.000246893
0.0599655
-0.000104079
0.0599168
6.74247e-05
0.0598005
0.000264009
0.0596061
0.00049497
0.0593211
0.000764335
0.0589304
0.00107817
0.0584172
0.00144302
0.0577608
0.00186911
0.0569388
0.00236251
0.0559189
0.00294892
0.0546809
0.00360237
0.00448812
0.0601103
-0.000833091
0.0602669
-0.0008293
0.0604133
-0.000793086
0.0605439
-0.000733806
0.0606529
-0.000651019
0.0607343
-0.0005444
0.0607814
-0.000412284
0.0607864
-0.000251924
0.0607421
-5.9788e-05
0.060641
0.000168595
0.0604704
0.00043454
0.0602205
0.00074494
0.0598784
0.00110643
0.059429
0.00152752
0.0588555
0.00201652
0.0581364
0.0025882
0.0572504
0.00324859
0.0561618
0.00403746
0.0548557
0.00490844
0.00611327
0.0615834
-0.00092646
0.0616731
-0.000918992
0.0617519
-0.000871807
0.0618142
-0.000796169
0.0618544
-0.000691249
0.0618664
-0.000556343
0.0618437
-0.000389582
0.061779
-0.000187273
0.0616628
5.64179e-05
0.0614836
0.000347777
0.0612353
0.000682913
0.0609063
0.00107393
0.0604838
0.0015289
0.0599523
0.00205905
0.059295
0.0026738
0.0584892
0.00339397
0.0575153
0.00422254
0.0563329
0.00521979
0.0549347
0.00630664
0.00785172
0.06331
-0.000930246
0.0633078
-0.000916826
0.063294
-0.000857916
0.0632631
-0.000765367
0.0632096
-0.000637736
0.0631274
-0.000474106
0.0630097
-0.000271873
0.0628535
-3.1068e-05
0.0626362
0.000273688
0.0623591
0.00062487
0.0620092
0.00103287
0.0615754
0.00150774
0.0610466
0.00205765
0.0604067
0.00269895
0.0596396
0.00344093
0.0587203
0.00431326
0.0576322
0.00531065
0.056329
0.00652298
0.0548144
0.00782124
0.00972755
0.0652285
-0.000816214
0.0651058
-0.000794124
0.0649709
-0.000722967
0.0648189
-0.000613391
0.0646439
-0.000462685
0.0644398
-0.000270054
0.0642078
-3.99102e-05
0.0639142
0.000262548
0.0635728
0.000615092
0.0631699
0.00102782
0.0626942
0.0015085
0.0621334
0.00206861
0.0614747
0.00271633
0.0607011
0.00347253
0.0598
0.00434206
0.058743
0.00537021
0.0575192
0.00653452
0.0560668
0.00797536
0.054402
0.00948606
0.0117806
0.067278
-0.000554728
0.0670051
-0.000521165
0.0667188
-0.000436633
0.0664141
-0.000308732
0.066091
-0.000139555
0.0657417
7.91922e-05
0.0653357
0.00036609
0.0648918
0.000706453
0.0643963
0.00111056
0.0638377
0.00158651
0.0632055
0.00214066
0.0624863
0.00278779
0.0616691
0.00353358
0.060734
0.0044076
0.0596728
0.00540329
0.0584505
0.0065925
0.0570756
0.00790944
0.0554681
0.00958287
0.0536953
0.0112588
0.0139651
0.0694118
-0.000107942
0.0689526
-6.19558e-05
0.0684902
2.57691e-05
0.0680045
0.00017699
0.0674901
0.000374757
0.0669395
0.000629864
0.066358
0.000947555
0.0657319
0.0013326
0.065052
0.00179039
0.0643076
0.00233094
0.0634886
0.00295962
0.0625808
0.00369563
0.061575
0.00453941
0.0604483
0.00553428
0.0591983
0.0066533
0.0577763
0.0080145
0.0562106
0.00947505
0.0543729
0.0114206
0.0524342
0.0131975
0.0163706
0.0716293
0.000582935
0.0709391
0.000628215
0.070235
0.000729851
0.0695229
0.000889098
0.0687902
0.00110745
0.06803
0.00139006
0.067235
0.00174257
0.0663956
0.00217198
0.0655031
0.00268293
0.0645468
0.00328721
0.063518
0.00398848
0.0624025
0.00481115
0.0611952
0.00574662
0.0598742
0.00685528
0.0584544
0.0080732
0.0568842
0.00958466
0.0552598
0.0110994
0.0533801
0.0133003
0.0516271
0.0149505
0.0189859
0.0682695
0.000579469
0.0682668
0.00063087
0.0682631
0.000733586
0.0682604
0.000891767
0.0682582
0.00110961
0.0682572
0.0013911
0.0682598
0.00173999
0.0682689
0.00216287
0.0682889
0.00266289
0.0683241
0.00325203
0.0683836
0.00392898
0.0684733
0.00472147
0.0686145
0.0056054
0.06881