/*--------------------------------*- C++ -*----------------------------------*\
| =========                 |                                                 |
| \\      /  F ield         | OpenFOAM: The Open Source CFD Toolbox           |
|  \\    /   O peration     | Version:  4.1                                   |
|   \\  /    A nd           | Web:      www.OpenFOAM.org                      |
|    \\/     M anipulation  |                                                 |
\*---------------------------------------------------------------------------*/
FoamFile
{
    version     2.0;
    format      ascii;
    class       volVectorField;
    location    "6";
    object      U;
}
// * * * * * * * * * * * * * * * * * * * * * * * * * * * * * * * * * * * * * //

dimensions      [0 1 -1 0 0 0 0];

internalField   nonuniform List<vector> 
2000
(
(-0.0279806 0.0259799 4.9615e-20)
(0.0214978 0.0165801 0)
(0.162099 -0.0116094 7.95596e-20)
(0.370934 -0.0461757 3.56427e-20)
(0.618692 -0.0780827 -6.63005e-20)
(0.870367 -0.103492 -8.83862e-20)
(1.09737 -0.121285 2.81884e-20)
(1.28107 -0.136185 0)
(1.42489 -0.139679 -2.11246e-20)
(1.50465 -0.160507 0)
(-0.0188153 0.0171533 -2.45975e-20)
(0.0746569 -0.00768595 2.18629e-20)
(0.278851 -0.0407469 -8.40427e-20)
(0.551627 -0.0710367 -1.12339e-19)
(0.841239 -0.0925021 -7.94274e-22)
(1.10234 -0.105206 2.90439e-20)
(1.30971 -0.111785 -2.72461e-20)
(1.45794 -0.116032 -2.32455e-20)
(1.55355 -0.115608 2.11244e-20)
(1.59891 -0.12674 3.41351e-20)
(-0.00225551 0.00678521 2.64623e-20)
(0.15103 -0.0317712 -2.47861e-20)
(0.429125 -0.062918 4.22771e-20)
(0.757927 -0.0816537 -1.45119e-21)
(1.06437 -0.0889522 3.39191e-20)
(1.306 -0.0895792 3.01361e-20)
(1.47313 -0.0878921 2.65666e-20)
(1.57525 -0.0872093 2.32457e-20)
(1.6296 -0.0856594 1.90727e-20)
(1.6544 -0.0939002 -1.62913e-20)
(0.0237877 -0.004548 -7.00748e-22)
(0.253051 -0.05213 -2.6337e-20)
(0.606562 -0.0725796 0)
(0.969844 -0.074708 3.73697e-20)
(1.26363 -0.0684594 -3.62418e-20)
(1.46467 -0.0609272 0)
(1.58411 -0.0557218 0)
(1.64504 -0.0539112 0)
(1.67073 -0.0533155 -1.90737e-20)
(1.67347 -0.0605812 3.06913e-20)
(0.0611391 -0.0155031 6.17128e-20)
(0.379957 -0.063723 -3.18391e-23)
(0.797625 -0.0653971 2.44247e-20)
(1.16646 -0.0503836 1.9826e-20)
(1.42442 -0.0347223 1.76072e-20)
(1.57657 -0.023995 1.46265e-20)
(1.65249 -0.0190434 0)
(1.68247 -0.0185881 9.94018e-21)
(1.68826 -0.0205605 -4.03065e-20)
(1.68418 -0.0280444 5.22437e-20)
(0.110894 -0.0240073 -9.63583e-20)
(0.526268 -0.0613244 1.7679e-21)
(0.985308 -0.0399518 -4.82872e-20)
(1.33332 -0.0114126 4.31552e-20)
(1.54364 0.00830131 -5.05603e-20)
(1.64887 0.0180344 1.63104e-20)
(1.69017 0.020232 0)
(1.69885 0.0178071 -9.9409e-21)
(1.69415 0.0129682 8.16682e-21)
(1.68472 0.00533566 2.21988e-20)
(0.17293 -0.0274531 0)
(0.681895 -0.0412911 0)
(1.15501 0.00239595 -2.43473e-20)
(1.4645 0.0387385 2.26657e-20)
(1.62514 0.0575682 -1.59279e-20)
(1.69047 0.0632591 1.49542e-20)
(1.70651 0.0611311 2.00425e-20)
(1.70201 0.0550628 -1.8945e-20)
(1.69133 0.0471908 -1.23898e-20)
(1.6805 0.038676 5.97755e-21)
(0.245349 -0.0231566 1.83501e-20)
(0.834511 -0.00277478 0)
(1.29767 0.0587667 -1.13526e-20)
(1.5601 0.0968728 4.20311e-20)
(1.67495 0.110856 -2.60092e-20)
(1.70899 0.110483 0)
(1.70791 0.103167 0)
(1.69572 0.0930331 0)
(1.68253 0.0821547 -1.00112e-20)
(1.67103 0.0724356 9.51616e-21)
(0.324377 -0.00895292 -9.42517e-21)
(0.972943 0.0524049 -3.77173e-22)
(1.40923 0.125728 -1.30373e-20)
(1.62303 0.160288 4.87192e-21)
(1.69889 0.166508 4.68512e-21)
(1.7099 0.158846 6.45031e-21)
(1.69801 0.145877 0)
(1.68197 0.131477 -1.3141e-21)
(1.66794 0.117578 -4.47813e-21)
(1.65666 0.105884 3.43345e-21)
(0.404839 0.0163066 0)
(1.08938 0.120854 -7.98192e-21)
(1.48884 0.199808 0)
(1.65705 0.226688 -2.78262e-21)
(1.70169 0.223167 -2.5688e-21)
(1.69677 0.207547 -2.81978e-21)
(1.67872 0.188689 0)
(1.66127 0.169877 1.31421e-21)
(1.64764 0.152888 8.65784e-22)
(1.63713 0.138737 1.87939e-22)
(-0.00986537 0.00919828 0)
(-0.037992 0.0163079 -4.3128e-21)
(-0.0762054 0.01809 0)
(-0.11131 0.0174507 -5.62912e-21)
(-0.140678 0.0155502 -1.77202e-21)
(-0.163886 0.0129269 3.27156e-21)
(-0.180833 0.00990677 -3.08099e-21)
(-0.191737 0.00676911 2.8858e-21)
(-0.197246 0.00384419 4.90052e-23)
(-0.19885 0.00154601 2.50465e-21)
(-0.0113586 0.0263495 -1.36843e-20)
(-0.0383966 0.046999 8.5454e-21)
(-0.072806 0.0523407 -8.10202e-21)
(-0.103145 0.0505187 3.73687e-21)
(-0.127184 0.0448954 1.76574e-20)
(-0.144543 0.0370459 -6.61288e-21)
(-0.155115 0.0279081 0)
(-0.159003 0.0183128 -2.87609e-21)
(-0.156471 0.00928602 -2.67726e-21)
(-0.149164 0.00216906 0)
(-0.0140638 0.0400311 9.13137e-21)
(-0.0392538 0.0722565 0)
(-0.0667337 0.0809708 2.44876e-20)
(-0.0882359 0.0781558 -3.05734e-20)
(-0.102258 0.0690338 7.21464e-21)
(-0.108581 0.0560774 0)
(-0.10716 0.0407073 0)
(-0.0980678 0.0241966 0)
(-0.0810033 0.00825312 2.17871e-20)
(-0.0567392 -0.00462866 -2.07063e-20)
(-0.0174729 0.0488897 0)
(-0.0405715 0.0895536 -1.79977e-20)
(-0.0591218 0.100933 3.3411e-20)
(-0.0687595 0.0971413 -1.55832e-20)
(-0.0690046 0.0847665 1.46542e-20)
(-0.0599536 0.0669853 -4.12439e-20)
(-0.0417131 0.0455391 1.54482e-22)
(-0.0146163 0.0218211 2.43313e-20)
(0.0214361 -0.00214021 2.22788e-20)
(0.0691673 -0.0216474 -3.16988e-20)
(-0.0210882 0.0527575 1.93332e-20)
(-0.0422058 0.0977655 -3.70477e-20)
(-0.0508533 0.110305 -1.66594e-22)
(-0.0465225 0.105028 1.53353e-22)
(-0.0298884 0.0893271 1.48206e-20)
(-0.00150715 0.066976 -4.21446e-20)
(0.0382639 0.0399592 0)
(0.0885851 0.00959359 -1.24172e-20)
(0.148327 -0.0222279 1.15853e-20)
(0.227281 -0.048969 -4.26418e-20)
(-0.0245768 0.0524672 -2.78398e-22)
(-0.0436726 0.0972405 3.75632e-20)
(-0.0417117 0.10855 1.72607e-20)
(-0.0214599 0.100496 1.65984e-20)
(0.0154163 0.0808518 1.50361e-20)
(0.0678326 0.053856 1.41121e-20)
(0.134897 0.0218639 0)
(0.215335 -0.0134273 1.2416e-20)
(0.302463 -0.0512697 3.41925e-20)
(0.422245 -0.0842963 -1.155e-20)
(-0.0277629 0.0493833 7.86575e-23)
(-0.0439074 0.0894414 1.94273e-20)
(-0.0296077 0.0965288 0)
(0.00994382 0.0838325 -3.23403e-20)
(0.0722869 0.0592696 3.07147e-20)
(0.155511 0.0274245 0)
(0.257151 -0.00885267 0)
(0.375102 -0.0466218 0)
(0.491985 -0.0872241 -2.34629e-20)
(0.657199 -0.121676 -4.30229e-20)
(-0.0304441 0.0447878 -2.13245e-20)
(-0.0409539 0.0762322 1.99751e-20)
(-0.0100767 0.0761613 3.6731e-20)
(0.0551878 0.0570382 5.70179e-22)
(0.151323 0.0269289 3.1212e-20)
(0.274195 -0.00916412 2.90199e-20)
(0.417421 -0.0478567 2.70207e-20)
(0.575607 -0.0849227 2.50845e-20)
(0.721495 -0.123664 2.346e-20)
(0.919673 -0.15215 -2.12983e-20)
(-0.032119 0.0394016 -6.72487e-20)
(-0.0317877 0.0591618 -1.98726e-20)
(0.0234566 0.0497762 -7.38086e-20)
(0.124524 0.0234278 -3.3878e-20)
(0.264989 -0.0113841 5.0966e-22)
(0.435021 -0.0491309 -2.8648e-20)
(0.621262 -0.0859025 2.73102e-20)
(0.810676 -0.118625 -2.50815e-20)
(0.978437 -0.149647 2.28693e-20)
(1.17513 -0.167147 -4.20623e-20)
(-0.0317953 0.0332646 4.52558e-20)
(-0.012466 0.0391198 0)
(0.0785314 0.0196905 3.76986e-20)
(0.227868 -0.0127077 -9.40661e-23)
(0.421503 -0.0489049 5.97093e-22)
(0.638696 -0.0833853 2.88993e-20)
(0.857187 -0.112545 -8.18961e-20)
(1.05636 -0.137638 0)
(1.22695 -0.155015 -2.28672e-20)
(1.37897 -0.166058 0)
(-0.198363 -9.52475e-05 0)
(-0.196539 -0.00272556 -2.22401e-21)
(-0.191177 -0.0056397 4.35978e-21)
(-0.182104 -0.00856692 -1.87267e-21)
(-0.169359 -0.0114768 0)
(-0.152969 -0.0142849 1.73628e-21)
(-0.133021 -0.0169841 -1.74488e-21)
(-0.109623 -0.0195445 0)
(-0.0829258 -0.0219397 0)
(-0.0530382 -0.0242555 1.47577e-22)
(-0.0202269 -0.0262102 0)
(0.015312 -0.0279408 0)
(0.0533329 -0.0295062 0)
(0.0934836 -0.0308729 0)
(0.135603 -0.0320638 -7.09166e-23)
(0.179504 -0.0331232 7.12842e-23)
(0.225062 -0.0341143 0)
(0.27231 -0.0351688 5.8049e-26)
(0.319013 -0.0362831 -5.83546e-26)
(0.386295 -0.0378783 0)
(-0.142049 -0.0025115 0)
(-0.137527 -0.0103068 5.894e-22)
(-0.129466 -0.0188171 0)
(-0.11788 -0.0273654 7.9551e-21)
(-0.102916 -0.0360429 -7.74589e-21)
(-0.0846166 -0.0441885 4.75e-22)
(-0.0631505 -0.05204 -3.25271e-21)
(-0.0385919 -0.059494 6.59398e-21)
(-0.0112461 -0.0664625 -5.16088e-21)
(0.0192009 -0.0728407 2.74879e-21)
(0.0524399 -0.0785913 1.87045e-21)
(0.0877769 -0.0836866 -3.18955e-21)
(0.125247 -0.0881796 1.53963e-21)
(0.164594 -0.0920592 5.92837e-22)
(0.205583 -0.0953968 -4.5515e-22)
(0.248019 -0.0983128 7.01454e-23)
(0.29167 -0.100971 4.20133e-23)
(0.336955 -0.103711 1.21524e-23)
(0.380086 -0.106595 -1.22113e-23)
(0.443625 -0.110685 -1.12257e-23)
(-0.0388216 -0.012268 -6.28273e-22)
(-0.0291247 -0.0241048 -5.90425e-22)
(-0.015932 -0.0373601 -5.88599e-22)
(-1.74631e-05 -0.0508711 0)
(0.0190498 -0.0641077 -9.04512e-21)
(0.0411376 -0.0769516 7.06582e-21)
(0.0652886 -0.0893906 0)
(0.0918728 -0.101175 -8.15394e-22)
(0.120767 -0.112123 -3.54558e-22)
(0.151881 -0.121975 4.09844e-21)
(0.185001 -0.130967 -7.28224e-22)
(0.219835 -0.13887 -4.50618e-21)
(0.256171 -0.145684 -1.97695e-22)
(0.293772 -0.151453 -1.38955e-22)
(0.332403 -0.15629 -1.18868e-22)
(0.371909 -0.16036 1.79375e-22)
(0.411813 -0.163903 -2.0232e-22)
(0.453291 -0.167301 -1.45331e-22)
(0.490399 -0.170815 -1.22459e-23)
(0.546878 -0.175767 1.57416e-23)
(0.100066 -0.0320015 -1.95487e-20)
(0.117659 -0.0464291 7.03329e-22)
(0.136768 -0.0631382 1.43769e-21)
(0.158865 -0.0803664 1.8811e-20)
(0.182974 -0.0970715 1.63712e-21)
(0.20877 -0.113627 4.96311e-22)
(0.236114 -0.12958 -1.34094e-20)
(0.264983 -0.144665 8.32206e-21)
(0.295266 -0.158637 6.52851e-21)
(0.326817 -0.171289 -5.45044e-21)
(0.35945 -0.182529 7.39313e-22)
(0.392944 -0.192265 5.12445e-21)
(0.427095 -0.200486 1.96049e-22)
(0.46169 -0.207234 1.51136e-21)
(0.49651 -0.212667 -1.04931e-21)
(0.531508 -0.216935 -6.15272e-22)
(0.565912 -0.220419 5.34087e-22)
(0.60172 -0.223296 0)
(0.631473 -0.226241 5.44733e-23)
(0.678189 -0.230094 -4.77295e-24)
(0.268779 -0.0607367 4.20151e-20)
(0.295382 -0.0769848 -1.89326e-20)
(0.320121 -0.0959595 2.02666e-20)
(0.347467 -0.115572 0)
(0.376325 -0.134902 -1.10656e-21)
(0.405794 -0.153743 -1.63069e-20)
(0.435697 -0.17186 3.42744e-22)
(0.466024 -0.188942 1.392e-21)
(0.496688 -0.204673 1.36835e-20)
(0.527527 -0.218794 6.97943e-22)
(0.558379 -0.231134 0)
(0.589052 -0.241576 -5.15123e-22)
(0.619409 -0.250122 0)
(0.649272 -0.256791 -3.43626e-22)
(0.678511 -0.261831 0)
(0.707156 -0.265284 0)
(0.73442 -0.267822 1.35488e-22)
(0.762485 -0.26913 -1.43351e-22)
(0.784371 -0.270723 1.30372e-22)
(0.81893 -0.271782 -2.77026e-23)
(0.469017 -0.0957019 0)
(0.501972 -0.113067 -1.30844e-21)
(0.530646 -0.133462 -3.98155e-20)
(0.560911 -0.154178 3.85926e-20)
(0.592171 -0.174475 -1.16048e-21)
(0.623158 -0.194251 0)
(0.653488 -0.213227 -1.54906e-20)
(0.683122 -0.230991 2.86681e-20)
(0.711979 -0.247171 -1.49576e-20)
(0.739885 -0.261463 -7.54824e-22)
(0.766719 -0.273666 -6.62233e-22)
(0.792307 -0.283632 -5.70248e-22)
(0.816648 -0.291405 0)
(0.839564 -0.296961 2.3699e-21)
(0.861204 -0.300709 -5.23521e-21)
(0.881439 -0.302489 2.15495e-21)
(0.900141 -0.303416 -1.75468e-22)
(0.918422 -0.302437 -1.16379e-22)
(0.932373 -0.302347 3.76767e-23)
(0.952959 -0.299769 -3.67306e-23)
(0.7016 -0.131723 4.30746e-20)
(0.734855 -0.149297 0)
(0.763506 -0.170044 -1.2772e-21)
(0.792892 -0.190663 2.44465e-21)
(0.822577 -0.210774 2.3216e-21)
(0.851269 -0.230375 1.09245e-21)
(0.87848 -0.249049 1.01677e-21)
(0.904044 -0.266297 -1.33617e-20)
(0.927833 -0.281734 1.5948e-20)
(0.949661 -0.295039 1.288e-20)
(0.969504 -0.306026 -1.06964e-20)
(0.987202 -0.314528 1.13799e-21)
(1.003 -0.320679 -3.5275e-21)
(1.01665 -0.324396 1.03999e-21)
(1.02884 -0.326299 3.49524e-21)
(1.03891 -0.325971 2.506e-22)
(1.04814 -0.325041 -2.43016e-22)
(1.05535 -0.321624 3.35818e-22)
(1.06167 -0.319937 4.43822e-22)
(1.06783 -0.313903 2.14598e-23)
(0.954179 -0.161451 0)
(0.981079 -0.178761 -4.18334e-20)
(1.00479 -0.198647 4.29315e-20)
(1.02882 -0.218305 -1.22559e-21)
(1.05251 -0.23765 -2.30303e-21)
(1.07472 -0.256395 -1.09142e-21)
(1.09487 -0.273953 -2.01173e-21)
(1.11259 -0.289842 0)
(1.12775 -0.303727 -8.40669e-22)
(1.14021 -0.315306 -7.49484e-22)
(1.15016 -0.324452 -6.5628e-22)
(1.15749 -0.33102 -1.13538e-21)
(1.1628 -0.335254 0)
(1.16568 -0.337015 0)
(1.16756 -0.337123 -3.1666e-22)
(1.16693 -0.3349 -2.2352e-21)
(1.16691 -0.33242 1.55103e-21)
(1.16332 -0.327047 -1.27691e-22)
(1.16298 -0.324194 -2.34556e-22)
(1.1562 -0.31565 6.99249e-23)
(1.19661 -0.17857 4.38389e-20)
(1.21445 -0.195989 0)
(1.2305 -0.21462 0)
(1.24597 -0.233385 -3.73045e-20)
(1.2603 -0.2519 3.04522e-21)
(1.27269 -0.269411 6.76852e-20)
(1.28248 -0.285391 -3.15736e-20)
(1.28927 -0.299515 0)
(1.29314 -0.311544 0)
(1.29411 -0.321231 0)
(1.2927 -0.32854 3.30392e-22)
(1.28885 -0.333356 8.34829e-22)
(1.28357 -0.336017 6.97565e-21)
(1.27621 -0.336323 -6.73234e-21)
(1.26885 -0.335214 2.28158e-21)
(1.25904 -0.331789 -2.01972e-21)
(1.25159 -0.328404 0)
(1.23941 -0.321871 5.99921e-23)
(1.23422 -0.318385 7.02385e-23)
(1.21767 -0.308322 0)
(1.39816 -0.184018 -6.73749e-22)
(1.4113 -0.200547 -4.02819e-20)
(1.41906 -0.21724 3.98624e-20)
(1.42325 -0.234459 0)
(1.42523 -0.251129 3.37046e-20)
(1.42506 -0.266538 -6.47491e-20)
(1.42241 -0.280475 3.10705e-20)
(1.41707 -0.292753 0)
(1.40941 -0.303177 1.18852e-20)
(1.39961 -0.311513 -2.23231e-20)
(1.38836 -0.317751 1.07643e-20)
(1.37555 -0.321753 -2.70591e-22)
(1.36237 -0.323865 0)
(1.34779 -0.32381 -5.71015e-21)
(1.33432 -0.322541 7.67262e-21)
(1.3186 -0.31902 -2.18533e-21)
(1.30665 -0.315665 -1.2208e-21)
(1.28914 -0.309045 8.77975e-22)
(1.28126 -0.305591 3.8957e-22)
(1.25858 -0.295087 0)
(1.56793 -0.166008 0)
(1.56313 -0.181287 0)
(1.55215 -0.195172 0)
(1.53939 -0.209701 0)
(1.52704 -0.224482 0)
(1.51492 -0.238653 0)
(1.50225 -0.251677 0)
(1.48845 -0.263282 0)
(1.47366 -0.273389 0)
(1.45782 -0.281838 0)
(1.44156 -0.288649 0)
(1.42443 -0.293604 0)
(1.40764 -0.297006 0)
(1.38978 -0.298451 0)
(1.37357 -0.298834 0)
(1.35509 -0.297007 0)
(1.34095 -0.295262 0)
(1.32082 -0.290247 0)
(1.31136 -0.287929 0)
(1.28573 -0.278854 0)
(1.61207 -0.151185 0)
(1.60908 -0.168155 0)
(1.59668 -0.183721 0)
(1.581 -0.198954 0)
(1.56572 -0.213772 0)
(1.55103 -0.227638 0)
(1.53606 -0.240161 0)
(1.52012 -0.251146 0)
(1.50337 -0.260574 0)
(1.48577 -0.268346 0)
(1.46801 -0.274535 0)
(1.44958 -0.278967 0)
(1.43169 -0.281959 0)
(1.41281 -0.283136 0)
(1.39574 -0.28336 0)
(1.37638 -0.281528 0)
(1.36153 -0.279811 0)
(1.34051 -0.274998 0)
(1.33053 -0.272746 0)
(1.30398 -0.263986 0)
(1.63239 -0.136968 0)
(1.62919 -0.154556 0)
(1.61631 -0.170751 0)
(1.59978 -0.185701 0)
(1.58361 -0.19959 0)
(1.56818 -0.212359 0)
(1.55263 -0.223865 0)
(1.53619 -0.23397 0)
(1.519 -0.24266 0)
(1.50104 -0.249852 0)
(1.483 -0.255638 0)
(1.46436 -0.259866 0)
(1.44632 -0.262836 0)
(1.4273 -0.264178 0)
(1.41013 -0.264682 0)
(1.3906 -0.263287 0)
(1.37565 -0.261997 0)
(1.35441 -0.257794 0)
(1.34437 -0.255902 0)
(1.3175 -0.24796 0)
(1.63745 -0.123697 0)
(1.63434 -0.141108 0)
(1.62209 -0.157156 0)
(1.60606 -0.171573 0)
(1.59012 -0.18464 0)
(1.57482 -0.196552 0)
(1.55945 -0.20732 0)
(1.54326 -0.216832 0)
(1.52639 -0.225052 0)
(1.50878 -0.231895 0)
(1.49112 -0.237454 0)
(1.47287 -0.241592 0)
(1.45523 -0.24459 0)
(1.43659 -0.246087 0)
(1.41976 -0.246818 0)
(1.40053 -0.245768 0)
(1.38584 -0.244804 0)
(1.3648 -0.241094 0)
(1.3549 -0.239489 0)
(1.32823 -0.232245 0)
(1.63502 -0.112175 0)
(1.63223 -0.128794 0)
(1.62109 -0.144197 0)
(1.60615 -0.15794 0)
(1.59098 -0.170256 0)
(1.57627 -0.181412 0)
(1.56146 -0.191496 0)
(1.54591 -0.200426 0)
(1.52971 -0.208167 0)
(1.51279 -0.214637 0)
(1.4958 -0.219929 0)
(1.47821 -0.22392 0)
(1.4612 -0.226878 0)
(1.44315 -0.228458 0)
(1.42686 -0.229341 0)
(1.40811 -0.228566 0)
(1.39383 -0.227868 0)
(1.37318 -0.224598 0)
(1.36352 -0.223246 0)
(1.33724 -0.216654 0)
(1.6307 -0.102213 0)
(1.62808 -0.117675 0)
(1.61799 -0.132152 0)
(1.60424 -0.145092 0)
(1.59 -0.156636 0)
(1.576 -0.167042 0)
(1.56187 -0.176432 0)
(1.54702 -0.184759 0)
(1.53157 -0.192 0)
(1.51539 -0.198078 0)
(1.49914 -0.203084 0)
(1.48224 -0.206903 0)
(1.46589 -0.209787 0)
(1.44846 -0.211407 0)
(1.43273 -0.212394 0)
(1.41451 -0.211841 0)
(1.40066 -0.211357 0)
(1.38045 -0.208471 0)
(1.37106 -0.207334 0)
(1.34523 -0.201342 0)
(1.6271 -0.0933373 0)
(1.62439 -0.107522 0)
(1.61512 -0.120941 0)
(1.60242 -0.132991 0)
(1.58906 -0.143731 0)
(1.57574 -0.153383 0)
(1.56223 -0.162081 0)
(1.54803 -0.169804 0)
(1.53326 -0.17654 0)
(1.51776 -0.182219 0)
(1.50216 -0.186925 0)
(1.4859 -0.190547 0)
(1.47015 -0.193322 0)
(1.45328 -0.194938 0)
(1.43808 -0.195981 0)
(1.42034 -0.195596 0)
(1.40689 -0.195274 0)
(1.3871 -0.192718 0)
(1.37796 -0.191758 0)
(1.3526 -0.186312 0)
(1.62493 -0.0852373 0)
(1.6219 -0.0981332 0)
(1.61322 -0.110434 0)
(1.60141 -0.12154 0)
(1.58881 -0.131449 0)
(1.57608 -0.140345 0)
(1.5631 -0.148357 0)
(1.54944 -0.155479 0)
(1.53523 -0.161708 0)
(1.52031 -0.166977 0)
(1.50527 -0.171365 0)
(1.48955 -0.174767 0)
(1.47431 -0.177401 0)
(1.45793 -0.178975 0)
(1.44317 -0.180032 0)
(1.42585 -0.179771 0)
(1.41276 -0.179571 0)
(1.39335 -0.177302 0)
(1.38443 -0.176488 0)
(1.35949 -0.171546 0)
(1.62409 -0.0776965 0)
(1.62065 -0.0893213 0)
(1.61236 -0.100485 0)
(1.60126 -0.110618 0)
(1.58929 -0.119682 0)
(1.57706 -0.127822 0)
(1.56451 -0.135153 0)
(1.55129 -0.141676 0)
(1.53754 -0.147394 0)
(1.52309 -0.152245 0)
(1.50852 -0.156301 0)
(1.49324 -0.159464 0)
(1.47844 -0.161934 0)
(1.46246 -0.163439 0)
(1.44807 -0.164478 0)
(1.43111 -0.164309 0)
(1.41832 -0.164197 0)
(1.39924 -0.162183 0)
(1.39052 -0.16149 0)
(1.36596 -0.15702 0)
(1.62429 -0.0705251 0)
(1.62036 -0.0809168 0)
(1.61233 -0.0909547 0)
(1.60178 -0.100112 0)
(1.59034 -0.108328 0)
(1.57852 -0.115713 0)
(1.56632 -0.122369 0)
(1.55346 -0.128297 0)
(1.54008 -0.133503 0)
(1.52602 -0.13793 0)
(1.51183 -0.141645 0)
(1.49692 -0.144555 0)
(1.48247 -0.146844 0)
(1.46683 -0.148259 0)
(1.45275 -0.149257 0)
(1.4361 -0.149153 0)
(1.42357 -0.149105 0)
(1.40477 -0.14732 0)
(1.39622 -0.14673 0)
(1.37199 -0.142706 0)
(1.62518 -0.063584 0)
(1.62075 -0.0727949 0)
(1.61288 -0.0817368 0)
(1.60277 -0.0899304 0)
(1.59175 -0.0973024 0)
(1.58027 -0.103939 0)
(1.56835 -0.109926 0)
(1.55577 -0.115263 0)
(1.54271 -0.119957 0)
(1.52896 -0.123959 0)
(1.51508 -0.127326 0)
(1.50048 -0.129974 0)
(1.48632 -0.132068 0)
(1.47097 -0.133377 0)
(1.45715 -0.134315 0)
(1.44076 -0.134259 0)
(1.42845 -0.134255 0)
(1.40989 -0.132679 0)
(1.40149 -0.132177 0)
(1.37755 -0.128579 0)
(1.6265 -0.0567865 0)
(1.62158 -0.0648709 0)
(1.61378 -0.0727519 0)
(1.60402 -0.0800007 0)
(1.59335 -0.0865396 0)
(1.58213 -0.0924357 0)
(1.57045 -0.0977595 0)
(1.55811 -0.102511 0)
(1.54529 -0.106697 0)
(1.53181 -0.110271 0)
(1.51819 -0.113286 0)
(1.50385 -0.115664 0)
(1.48993 -0.117555 0)
(1.47481 -0.118746 0)
(1.46122 -0.119611 0)
(1.44505 -0.119587 0)
(1.43292 -0.119613 0)
(1.41458 -0.118231 0)
(1.40629 -0.117805 0)
(1.38261 -0.114618 0)
(1.62804 -0.0500736 0)
(1.62265 -0.0570819 0)
(1.61488 -0.0639378 0)
(1.60539 -0.0702639 0)
(1.59499 -0.0759837 0)
(1.584 -0.081149 0)
(1.5725 -0.0858182 0)
(1.56035 -0.0899902 0)
(1.54774 -0.09367 0)
(1.53447 -0.0968175 0)
(1.52107 -0.0994782 0)
(1.50694 -0.101582 0)
(1.49323 -0.10326 0)
(1.47831 -0.104326 0)
(1.4649 -0.105106 0)
(1.44892 -0.105104 0)
(1.43694 -0.105148 0)
(1.41879 -0.103949 0)
(1.41061 -0.103591 0)
(1.38716 -0.100801 0)
(1.62964 -0.0434012 0)
(1.62382 -0.04938 0)
(1.61604 -0.055246 0)
(1.60676 -0.0606731 0)
(1.59659 -0.0655897 0)
(1.58577 -0.0700357 0)
(1.57443 -0.074059 0)
(1.56243 -0.0776576 0)
(1.54999 -0.0808355 0)
(1.53689 -0.0835573 0)
(1.52367 -0.0858622 0)
(1.50971 -0.0876884 0)
(1.49617 -0.08915 0)
(1.48142 -0.0900824 0)
(1.46817 -0.0907713 0)
(1.45234 -0.0907825 0)
(1.4405 -0.0908344 0)
(1.42251 -0.0898102 0)
(1.41442 -0.0895114 0)
(1.39116 -0.0871106 0)
(1.63119 -0.0367397 0)
(1.62498 -0.0417312 0)
(1.61718 -0.0466401 0)
(1.60805 -0.0511914 0)
(1.59806 -0.0553209 0)
(1.58738 -0.0590595 0)
(1.57616 -0.0624458 0)
(1.56428 -0.0654774 0)
(1.55197 -0.0681574 0)
(1.53902 -0.0704555 0)
(1.52595 -0.0724042 0)
(1.51214 -0.0739508 0)
(1.49873 -0.0751917 0)
(1.48412 -0.0759866 0)
(1.471 -0.0765776 0)
(1.4553 -0.0765956 0)
(1.44357 -0.0766493 0)
(1.42571 -0.0757923 0)
(1.41769 -0.0755477 0)
(1.3946 -0.0735276 0)
(1.63259 -0.0300712 0)
(1.62604 -0.034112 0)
(1.61821 -0.0380927 0)
(1.60921 -0.0417889 0)
(1.59936 -0.0451466 0)
(1.58879 -0.048189 0)
(1.57765 -0.0509471 0)
(1.56587 -0.0534182 0)
(1.55367 -0.0556044 0)
(1.54083 -0.0574809 0)
(1.52787 -0.0590738 0)
(1.51418 -0.0603398 0)
(1.50089 -0.0613574 0)
(1.48638 -0.0620115 0)
(1.47337 -0.0624999 0)
(1.45778 -0.0625203 0)
(1.44614 -0.0625703 0)
(1.42839 -0.0618755 0)
(1.42043 -0.0616805 0)
(1.39747 -0.0600352 0)
(1.63377 -0.023392 0)
(1.62695 -0.0265118 0)
(1.61909 -0.0295871 0)
(1.61018 -0.0324451 0)
(1.60043 -0.0350432 0)
(1.58994 -0.0373992 0)
(1.57887 -0.0395364 0)
(1.56716 -0.0414527 0)
(1.55505 -0.043149 0)
(1.5423 -0.0446061 0)
(1.52943 -0.0458439 0)
(1.51582 -0.0468291 0)
(1.50262 -0.0476215 0)
(1.4882 -0.0481329 0)
(1.47527 -0.0485151 0)
(1.45977 -0.0485348 0)
(1.44819 -0.0485767 0)
(1.43053 -0.0480407 0)
(1.42262 -0.0478916 0)
(1.39977 -0.0466168 0)
(1.63467 -0.0167139 0)
(1.62765 -0.0189347 0)
(1.61976 -0.021121 0)
(1.61091 -0.0231519 0)
(1.60124 -0.0249984 0)
(1.59081 -0.026674 0)
(1.57979 -0.0281951 0)
(1.56814 -0.0295602 0)
(1.55608 -0.030769 0)
(1.5434 -0.0318084 0)
(1.53059 -0.0326913 0)
(1.51705 -0.0333955 0)
(1.50391 -0.0339611 0)
(1.48956 -0.0343287 0)
(1.47669 -0.0346014 0)
(1.46125 -0.0346196 0)
(1.44973 -0.0346482 0)
(1.43213 -0.0342709 0)
(1.42426 -0.0341622 0)
(1.4015 -0.0332569 0)
(1.63525 -0.00998755 0)
(1.62811 -0.0113373 0)
(1.6202 -0.0126565 0)
(1.6114 -0.0138766 0)
(1.60178 -0.0149831 0)
(1.59139 -0.0159867 0)
(1.5804 -0.0168975 0)
(1.56878 -0.0177157 0)
(1.55677 -0.0184398 0)
(1.54413 -0.0190636 0)
(1.53137 -0.019592 0)
(1.51787 -0.0200159 0)
(1.50477 -0.0203533 0)
(1.49047 -0.0205776 0)
(1.47763 -0.0207371 0)
(1.46224 -0.0207554 0)
(1.45076 -0.0207641 0)
(1.4332 -0.0205504 0)
(1.42535 -0.0204722 0)
(1.40264 -0.0199421 0)
(1.63548 -0.00320112 0)
(1.6283 -0.00369284 0)
(1.6204 -0.00416049 0)
(1.61163 -0.0045854 0)
(1.60204 -0.00496605 0)
(1.59167 -0.00530844 0)
(1.58071 -0.00561727 0)
(1.56911 -0.00589376 0)
(1.55711 -0.00613743 0)
(1.54449 -0.00634731 0)
(1.53175 -0.00652414 0)
(1.51828 -0.00666691 0)
(1.5052 -0.00677892 0)
(1.49092 -0.00685564 0)
(1.4781 -0.00690688 0)
(1.46274 -0.00691655 0)
(1.45126 -0.00691512 0)
(1.43374 -0.00685015 0)
(1.4259 -0.00681719 0)
(1.40322 -0.00664712 0)
(1.62881 0.122701 -1.8363e-22)
(1.64733 0.0966689 0)
(1.66116 0.0694307 2.24841e-22)
(1.67112 0.0411018 7.11388e-21)
(1.67623 0.0119393 -2.28603e-20)
(1.67811 -0.0176204 0)
(1.67574 -0.0478976 -2.95129e-20)
(1.66062 -0.0782925 0)
(1.65597 -0.108435 -3.56964e-20)
(1.56627 -0.145041 5.46301e-22)
(1.62279 0.108645 -2.57664e-22)
(1.63939 0.0858327 -8.81357e-23)
(1.65261 0.0617944 8.83106e-23)
(1.66063 0.0371146 -2.00155e-21)
(1.66784 0.0111729 6.71643e-21)
(1.66552 -0.0149786 5.75932e-22)
(1.67346 -0.041692 0)
(1.6502 -0.0706584 2.38833e-20)
(1.67133 -0.0941971 0)
(1.60771 -0.132135 2.92999e-20)
(1.62052 0.0951733 7.01567e-22)
(1.63397 0.0748124 0)
(1.64688 0.0533689 1.04141e-22)
(1.65116 0.031215 -1.93855e-21)
(1.66125 0.00855662 -7.30022e-21)
(1.65341 -0.0156292 0)
(1.6678 -0.0375071 -1.63168e-20)
(1.64236 -0.065994 -2.44069e-20)
(1.66453 -0.0836479 0)
(1.62801 -0.119124 -2.90023e-20)
(1.6206 0.0834573 -3.98525e-22)
(1.63112 0.0650083 1.12947e-21)
(1.64385 0.0462563 0)
(1.64491 0.0259348 -3.55505e-21)
(1.65623 0.00684376 -3.32899e-22)
(1.64611 -0.0160998 7.6112e-22)
(1.66003 -0.0335615 1.59675e-20)
(1.63969 -0.0607771 5.15686e-22)
(1.65301 -0.075438 1.83579e-20)
(1.63361 -0.106685 0)
(1.62203 0.0731611 0)
(1.63055 0.0563678 -1.12078e-21)
(1.64248 0.0402326 -7.90136e-22)
(1.64218 0.0214227 -1.34635e-22)
(1.65222 0.00545128 1.2895e-22)
(1.64332 -0.0160679 3.26694e-22)
(1.65251 -0.0306868 9.5769e-21)
(1.63873 -0.0554571 8.94177e-22)
(1.64375 -0.0691157 -3.7103e-21)
(1.63182 -0.096135 -1.72504e-20)
(1.62425 0.0640288 8.92099e-22)
(1.63169 0.0487519 9.96122e-23)
(1.64205 0.0348085 -7.44455e-22)
(1.64196 0.0175245 3.55543e-23)
(1.6493 0.00375459 9.03259e-22)
(1.64293 -0.0158807 0)
(1.64711 -0.0290519 -1.06056e-20)
(1.63766 -0.0508696 3.14702e-22)
(1.63798 -0.0640425 -2.6814e-20)
(1.62821 -0.08743 3.10863e-20)
(1.62699 0.0558457 -8.96489e-22)
(1.63393 0.0420616 -1.46011e-21)
(1.64242 0.0298069 1.35292e-21)
(1.64309 0.0141986 -1.895e-21)
(1.64775 0.00187375 -1.23333e-21)
(1.64344 -0.0155988 1.19562e-21)
(1.64433 -0.027918 -2.28749e-22)
(1.63681 -0.0469156 5.24349e-22)
(1.63513 -0.0594246 1.15455e-20)
(1.62552 -0.0798832 -1.3869e-20)
(1.63016 0.0484892 0)
(1.63675 0.0361931 3.3291e-21)
(1.64357 0.0252532 -2.73002e-22)
(1.6448 0.0113906 5.55823e-22)
(1.64758 0.000141277 -1.07608e-21)
(1.64435 -0.0151909 -1.19438e-21)
(1.64363 -0.0267062 1.2323e-21)
(1.63673 -0.0432967 0)
(1.63424 -0.0549404 0)
(1.62437 -0.0730453 0)
(1.63365 0.0418942 0)
(1.63983 0.0310338 -3.4149e-21)
(1.64537 0.0212026 -1.9519e-22)
(1.64678 0.00901533 1.48945e-21)
(1.64845 -0.00126251 1.373e-21)
(1.64562 -0.0146752 8.65321e-23)
(1.64419 -0.0252951 -1.39945e-21)
(1.63746 -0.0398957 8.23552e-23)
(1.63454 -0.0505905 0)
(1.62456 -0.066706 -3.14713e-21)
(1.63731 0.0360046 1.42443e-22)
(1.64299 0.0264808 1.99574e-21)
(1.64762 0.0176656 2.85713e-21)
(1.64894 0.00700075 -6.0631e-23)
(1.64997 -0.00231119 2.22184e-22)
(1.64721 -0.0140655 -1.85887e-21)
(1.64543 -0.0237265 6.46669e-22)
(1.63882 -0.0366347 2.15642e-23)
(1.63555 -0.0463475 0)
(1.62573 -0.060694 5.26589e-21)
(1.64099 0.0307565 0)
(1.64615 0.0224533 2.26909e-21)
(1.6501 0.0146111 3.45132e-22)
(1.65122 0.00530662 0)
(1.65182 -0.00303277 0)
(1.64907 -0.0133362 1.70669e-21)
(1.64702 -0.0220125 -5.16872e-22)
(1.64062 -0.0334103 2.77371e-23)
(1.63701 -0.0421317 1.29413e-23)
(1.62756 -0.0548627 -2.16819e-21)
(1.64456 0.0260794 0)
(1.64921 0.018888 -4.43536e-21)
(1.65263 0.0119894 -4.08837e-21)
(1.65353 0.00391216 5.27221e-22)
(1.6538 -0.00345934 -3.15818e-22)
(1.65108 -0.0124523 -1.49291e-22)
(1.64878 -0.0201433 2.27598e-22)
(1.64266 -0.0301481 1.00221e-21)
(1.63873 -0.0378908 5.20513e-24)
(1.62974 -0.0491207 1.51011e-23)
(1.64792 0.0219021 0)
(1.65212 0.0157313 2.43278e-21)
(1.65509 0.00974747 -2.29124e-22)
(1.65581 0.002799 2.27227e-22)
(1.65579 -0.00362127 0)
(1.65314 -0.0113986 0)
(1.65061 -0.0181207 0)
(1.6448 -0.0268176 -1.09721e-21)
(1.64056 -0.0336041 8.68247e-22)
(1.63205 -0.0434142 0)
(1.65098 0.0181812 0)
(1.6548 0.0129454 1.63775e-21)
(1.6574 0.00784093 1.92256e-21)
(1.65797 0.00194575 2.19814e-21)
(1.65771 -0.00354878 -3.87945e-22)
(1.65513 -0.0101798 1.97477e-21)
(1.6524 -0.0159562 -1.40171e-21)
(1.64689 -0.0234085 0)
(1.64237 -0.0292601 5.56321e-22)
(1.63435 -0.0377056 -6.77622e-22)
(1.65368 0.014783 -4.07443e-22)
(1.65718 0.0104559 -1.34355e-21)
(1.65947 0.00621145 -2.49052e-21)
(1.65994 0.001317 -1.55284e-21)
(1.65947 -0.00327656 0)
(1.65698 -0.0088121 -2.45562e-21)
(1.65408 -0.0136648 2.05846e-21)
(1.64885 -0.019918 -1.83731e-22)
(1.64408 -0.0248522 -4.70544e-22)
(1.6365 -0.0319707 1.19521e-21)
(1.65602 0.0116601 4.09537e-22)
(1.65926 0.00821954 -1.10428e-21)
(1.66129 0.00481383 8.82595e-22)
(1.66167 0.000879109 -2.00072e-21)
(1.66103 -0.00283635 0)
(1.65861 -0.00731466 0)
(1.65557 -0.0112626 2.12605e-22)
(1.65059 -0.0163494 -1.87381e-21)
(1.64561 -0.0203811 -7.57228e-22)
(1.63841 -0.0261969 -5.42511e-22)
(1.65795 0.00882134 0)
(1.66097 0.00620996 1.77454e-21)
(1.66279 0.0036095 -5.86135e-22)
(1.66311 0.000597721 1.81828e-21)
(1.66233 -0.0022619 4.60021e-22)
(1.65999 -0.00571381 -3.00762e-22)
(1.65683 -0.00877392 5.26229e-22)
(1.65205 -0.0127185 1.27891e-21)
(1.6469 -0.0158601 0)
(1.64001 -0.020387 0)
(1.65943 0.00618454 0)
(1.66229 0.00437258 7.46696e-22)
(1.66395 0.00255684 -1.2473e-21)
(1.66422 0.000441487 0)
(1.66334 -0.00158102 -8.75837e-22)
(1.66105 -0.00403265 -3.1603e-22)
(1.65782 -0.00622106 -8.16384e-22)
(1.65318 -0.00904511 -1.88051e-22)
(1.6479 -0.011309 1.13476e-22)
(1.64124 -0.0145605 6.67536e-23)
(1.66043 0.00371088 0)
(1.66317 0.00268099 -7.50287e-22)
(1.66472 0.0016462 -6.19241e-22)
(1.66496 0.000419709 7.88005e-22)
(1.66402 -0.000768079 3.91302e-22)
(1.66177 -0.00223016 3.62416e-22)
(1.65848 -0.00355187 1.3794e-21)
(1.65394 -0.00526984 -8.96981e-22)
(1.64857 -0.0066661 1.9129e-22)
(1.64204 -0.0086607 0)
(1.66092 0.00116764 0)
(1.6636 0.000935398 3.56857e-22)
(1.6651 0.000691177 -3.301e-22)
(1.66532 0.000362192 2.97728e-22)
(1.66435 2.1846e-05 0)
(1.66211 -0.000436498 -3.64239e-22)
(1.65879 -0.000873078 2.64027e-22)
(1.65429 -0.00146589 1.94176e-22)
(1.64885 -0.0019728 0)
(1.64237 -0.00269488 0)
(1.15406 0.312975 0)
(1.12863 0.344173 -4.31779e-20)
(1.11055 0.383483 0)
(1.09662 0.432202 -1.41255e-19)
(1.08416 0.490225 5.60231e-20)
(1.07186 0.55958 2.68512e-21)
(1.0573 0.641047 3.83862e-20)
(1.0213 0.722351 -9.88025e-21)
(0.891189 0.736982 0)
(0.512701 0.459506 2.75334e-20)
(1.21425 0.313736 7.7639e-20)
(1.19337 0.351401 4.31762e-20)
(1.18237 0.389688 -3.8301e-20)
(1.17469 0.437144 4.76708e-20)
(1.16848 0.494574 -3.47402e-20)
(1.16375 0.563108 9.53118e-21)
(1.15773 0.642815 -4.17698e-20)
(1.12784 0.719589 -7.50632e-20)
(0.990833 0.725678 -1.96627e-20)
(0.566796 0.44108 -3.87472e-20)
(1.27414 0.30902 -3.19811e-20)
(1.25991 0.347871 3.24176e-20)
(1.25431 0.385419 3.82993e-20)
(1.25139 0.432158 3.81796e-20)
(1.25086 0.488822 3.75114e-20)
(1.2534 0.55576 3.58462e-20)
(1.25506 0.632182 1.10697e-20)
(1.22923 0.701813 2.64432e-20)
(1.08196 0.697437 2.46649e-21)
(0.610811 0.410339 -2.63296e-21)
(1.33542 0.300727 6.41618e-20)
(1.32653 0.33863 -3.2416e-20)
(1.32474 0.374578 0)
(1.32566 0.419588 0)
(1.33029 0.474214 0)
(1.3394 0.538233 1.82216e-20)
(1.3473 0.609692 -8.71746e-21)
(1.32252 0.6697 0)
(1.16092 0.653568 -5.16433e-21)
(0.641272 0.368986 1.33435e-20)
(1.39443 0.288341 -9.04739e-21)
(1.39002 0.324113 3.86651e-20)
(1.3915 0.358031 0)
(1.39604 0.40052 0)
(1.40542 0.451872 6.63191e-21)
(1.42015 0.511609 4.04703e-21)
(1.43224 0.576788 1.04497e-20)
(1.40508 0.624461 -5.36348e-21)
(1.22238 0.595252 -2.50925e-20)
(0.656138 0.32013 -5.56717e-21)