/*--------------------------------*- C++ -*----------------------------------*\
| =========                 |                                                 |
| \\      /  F ield         | OpenFOAM: The Open Source CFD Toolbox           |
|  \\    /   O peration     | Version:  4.1                                   |
|   \\  /    A nd           | Web:      www.OpenFOAM.org                      |
|    \\/     M anipulation  |                                                 |
\*---------------------------------------------------------------------------*/
FoamFile
{
    version     2.0;
    format      ascii;
    class       volScalarField;
    location    "1";
    object      p;
}
// * * * * * * * * * * * * * * * * * * * * * * * * * * * * * * * * * * * * * //

dimensions      [0 2 -2 0 0 0 0];

internalField   nonuniform List<scalar> 
2000
(
0.276935
0.281458
0.284922
0.287464
0.288697
0.288536
0.28717
0.284818
0.281548
0.277962
0.288391
0.292997
0.296934
0.300123
0.302049
0.302588
0.301918
0.300228
0.297544
0.2946
0.301141
0.305818
0.310227
0.31406
0.316675
0.31791
0.317927
0.316907
0.314882
0.312591
0.315209
0.319938
0.324807
0.329265
0.332547
0.334458
0.335145
0.334787
0.333437
0.331831
0.330604
0.335359
0.340666
0.345716
0.34963
0.352186
0.353522
0.353814
0.353138
0.352205
0.347321
0.352072
0.357782
0.363376
0.367877
0.371041
0.372995
0.373917
0.373909
0.373634
0.36534
0.370046
0.376114
0.382194
0.387227
0.390951
0.393487
0.395015
0.395663
0.396022
0.384616
0.389233
0.395606
0.402103
0.407602
0.411833
0.414908
0.417012
0.418298
0.419263
0.405087
0.409563
0.41618
0.423015
0.428909
0.433586
0.437153
0.439798
0.441698
0.443235
0.426664
0.430941
0.437737
0.444826
0.451037
0.456096
0.460101
0.463244
0.46573
0.4678
0.224122
0.227868
0.22839
0.22693
0.223891
0.219527
0.214118
0.207904
0.201062
0.193726
0.224994
0.22878
0.229354
0.227982
0.225037
0.220763
0.215438
0.209303
0.202539
0.195263
0.226768
0.230597
0.231296
0.230096
0.227335
0.223238
0.21808
0.212101
0.205493
0.198337
0.229453
0.233341
0.234227
0.23328
0.230789
0.226956
0.222043
0.216294
0.209914
0.20294
0.233075
0.237037
0.238167
0.23755
0.235411
0.23192
0.227326
0.221877
0.215794
0.209061
0.237671
0.241718
0.243145
0.242927
0.241214
0.238136
0.233929
0.228843
0.22312
0.216685
0.243284
0.247425
0.249194
0.249435
0.248211
0.245609
0.241849
0.23718
0.231872
0.225786
0.249964
0.254202
0.256351
0.257102
0.25642
0.254344
0.251076
0.246866
0.242012
0.236314
0.257765
0.262101
0.264662
0.265969
0.265874
0.264367
0.261628
0.2579
0.25348
0.248059
0.26674
0.271171
0.274173
0.27608
0.276626
0.275755
0.273637
0.270504
0.266554
0.261245
0.186022
0.177805
0.169257
0.160472
0.151485
0.14232
0.133004
0.123559
0.114004
0.104354
0.0946242
0.0848254
0.0749684
0.0650626
0.0551212
0.0451569
0.0351626
0.0251451
0.0151164
0.00507373
0.187551
0.179246
0.170597
0.161724
0.152656
0.143412
0.134016
0.124494
0.114862
0.105136
0.0953308
0.0854577
0.0755275
0.0655494
0.0555308
0.0454912
0.0354211
0.0253279
0.0152243
0.00510893
0.190607
0.182124
0.173275
0.164229
0.154997
0.145589
0.136033
0.126352
0.116564
0.106683
0.0967232
0.0866956
0.0766098
0.0664731
0.0562914
0.0461103
0.0359057
0.0256749
0.0154308
0.0051745
0.195178
0.186418
0.177277
0.167978
0.158504
0.148857
0.139065
0.129152
0.119134
0.109028
0.0988448
0.0885974
0.0782971
0.0679549
0.0575781
0.0471365
0.0366934
0.0262327
0.0157604
0.00527939
0.201248
0.1921
0.182575
0.172944
0.163141
0.153167
0.143054
0.132825
0.122496
0.112081
0.101591
0.0910373
0.0804281
0.069771
0.0590694
0.0483177
0.0376221
0.0269048
0.0161633
0.00540824
0.208798
0.199153
0.189175
0.179144
0.168945
0.15858
0.148084
0.137478
0.126775
0.115989
0.105131
0.0942122
0.0832433
0.0722339
0.0611953
0.0501293
0.0389612
0.027845
0.0167232
0.00558888
0.217775
0.207509
0.196981
0.186444
0.175737
0.164875
0.153896
0.142818
0.131652
0.120411
0.109105
0.0977429
0.0863334
0.0748839
0.0634031
0.0518991
0.0403693
0.0288066
0.0172976
0.00577644
0.228151
0.217237
0.206155
0.195101
0.183879
0.172507
0.161019
0.149428
0.137748
0.125992
0.11417
0.102292
0.0903663
0.0784
0.0664006
0.0543746
0.0423223
0.0302303
0.0181008
0.00603347
0.239567
0.227922
0.216021
0.204156
0.192196
0.180152
0.168031
0.155839
0.14358
0.131263
0.118894
0.10648
0.0940274
0.0815424
0.0690306
0.0564986
0.0439547
0.0314068
0.018851
0.00626789
0.251895
0.240914
0.228895
0.216483
0.20388
0.191152
0.178325
0.165415
0.152433
0.139385
0.12628
0.113124
0.0999232
0.0866833
0.0734098
0.0601076
0.0467809
0.0334344
0.0200729
0.00669505
0.262929
0.25002
0.23698
0.223672
0.210299
0.196902
0.183474
0.170015
0.156528
0.143014
0.129475
0.115912
0.102328
0.0887254
0.0751057
0.0614718
0.0478262
0.0341715
0.0205106
0.00684621
0.267399
0.253366
0.239671
0.225958
0.212272
0.198616
0.184969
0.17132
0.157666
0.144004
0.130333
0.116651
0.102959
0.089257
0.0755454
0.0618251
0.0480972
0.0343625
0.020622
0.0068773
0.271213
0.256772
0.242657
0.228581
0.214576
0.200639
0.186746
0.172878
0.15903
0.145194
0.131366
0.117542
0.103719
0.0898969
0.0760734
0.0622479
0.04842
0.0345892
0.0207553
0.00691804
0.274811
0.260085
0.245613
0.231211
0.216915
0.202716
0.188586
0.174506
0.160465
0.146454
0.132465
0.118494
0.104535
0.0905859
0.0766434
0.0627055
0.0487702
0.0348359
0.0209011
0.00696375
0.27807
0.263082
0.248309
0.233632
0.219087
0.20466
0.19032
0.176047
0.161829
0.147656
0.133517
0.119407
0.105319
0.0912495
0.0771932
0.0631471
0.0491083
0.035074
0.0210415
0.00700754
0.280993
0.265787
0.250769
0.235865
0.221107
0.20648
0.191952
0.177505
0.163126
0.148802
0.134524
0.120283
0.106073
0.0918883
0.0777231
0.0635732
0.0494348
0.0353041
0.0211773
0.00705011
0.283614
0.268231
0.253012
0.237918
0.222979
0.208176
0.193482
0.178879
0.164352
0.14989
0.135482
0.12112
0.106795
0.0925008
0.0782319
0.0639829
0.0497489
0.0355256
0.0213083
0.00709147
0.285956
0.270426
0.255042
0.239791
0.224697
0.209743
0.194903
0.18016
0.165501
0.150913
0.136386
0.12191
0.107478
0.0930818
0.0787152
0.0643724
0.0500479
0.0357366
0.0214332
0.00713113
0.288037
0.272387
0.256868
0.241486
0.226262
0.211178
0.19621
0.181344
0.166566
0.151864
0.137229
0.122649
0.108118
0.0936271
0.0791695
0.064739
0.0503295
0.0359355
0.021551
0.00716877
0.289878
0.274129
0.2585
0.243011
0.227677
0.212481
0.197402
0.182428
0.167544
0.152741
0.138007
0.123334
0.108712
0.0941338
0.0795922
0.0650804
0.050592
0.0361211
0.0216611
0.0072041
0.291496
0.275666
0.259947
0.24437
0.228944
0.213652
0.198479
0.18341
0.168434
0.15354
0.138719
0.12396
0.109257
0.0945993
0.079981
0.0653948
0.050834
0.0362922
0.0217627
0.00723688
0.292907
0.27701
0.26122
0.24557
0.230067
0.214696
0.19944
0.18429
0.169233
0.15426
0.139361
0.124527
0.10975
0.0950218
0.0803343
0.0656807
0.0510542
0.0364481
0.0218553
0.00726689
0.294126
0.278175
0.262327
0.246618
0.231052
0.215613
0.200288
0.185068
0.169942
0.1549
0.139933
0.125033
0.110191
0.0953996
0.0806506
0.065937
0.0512517
0.036588
0.0219385
0.00729396
0.295166
0.279171
0.263276
0.24752
0.231902
0.216407
0.201025
0.185745
0.17056
0.155459
0.140434
0.125477
0.110579
0.0957318
0.080929
0.0661627
0.0514258
0.0367114
0.022012
0.00731792
0.296038
0.280007
0.264076
0.248282
0.232622
0.217082
0.201652
0.186323
0.171088
0.155938
0.140863
0.125857
0.110911
0.0960176
0.0811687
0.0663571
0.0515758
0.0368178
0.0220753
0.00733867
0.296751
0.280692
0.264733
0.24891
0.233216
0.217639
0.20217
0.186802
0.171527
0.156336
0.141221
0.126175
0.111189
0.0962563
0.081369
0.0665198
0.0517014
0.0369069
0.0221284
0.0073561
0.297313
0.281233
0.265252
0.249407
0.233687
0.218082
0.202583
0.187184
0.171877
0.156654
0.141507
0.126429
0.111411
0.0964476
0.0815297
0.0666503
0.0518022
0.0369784
0.0221711
0.00737013
0.297731
0.281635
0.265638
0.249777
0.234038
0.218412
0.202891
0.187469
0.172139
0.156892
0.141721
0.126619
0.111578
0.0965913
0.0816503
0.0667483
0.051878
0.0370322
0.0222032
0.00738072
0.29801
0.281902
0.265895
0.250022
0.234272
0.218632
0.203096
0.187659
0.172313
0.15705
0.141864
0.126746
0.11169
0.0966871
0.0817309
0.0668138
0.0519286
0.0370681
0.0222246
0.0073879
0.298162
0.282041
0.266025
0.250146
0.234388
0.218741
0.203199
0.187754
0.1724
0.157129
0.141935
0.12681
0.111745
0.096735
0.0817712
0.0668465
0.0519539
0.0370861
0.0222352
0.0073921
0.469579
0.445054
0.421068
0.397759
0.375244
0.353628
0.333003
0.313431
0.295041
0.277421
0.471256
0.447398
0.424011
0.401224
0.379151
0.35789
0.337531
0.31813
0.299851
0.282043
0.472754
0.449438
0.426549
0.404208
0.382521
0.361582
0.341477
0.32225
0.304112
0.286233
0.474021
0.451173
0.428713
0.406754
0.385399
0.364738
0.344854
0.325786
0.30777
0.290001
0.47512
0.452696
0.430628
0.409022
0.387977
0.367579
0.347907
0.328999
0.311084
0.293435
0.476077
0.454035
0.43232
0.411034
0.390272
0.370113
0.350636
0.331876
0.314043
0.29651
0.476912
0.455215
0.43382
0.412826
0.392321
0.372381
0.35308
0.334455
0.31669
0.299263
0.477642
0.456258
0.435156
0.414428
0.394156
0.374415
0.355273
0.336768
0.319058
0.301717
0.478281
0.457183
0.436348
0.415862
0.395803
0.376241
0.357241
0.338841
0.321174
0.303899
0.478841
0.458005
0.437413
0.417149
0.397284
0.377884
0.359009
0.340698
0.323061
0.305831
0.479331
0.458734
0.438367
0.418304
0.398616
0.379361
0.360596
0.342358
0.32474
0.307534
0.479759
0.459381
0.439219
0.419342
0.399813
0.380689
0.362019
0.34384
0.326228
0.309028
0.48013
0.459955
0.439982
0.420274
0.40089
0.381881
0.363292
0.345159
0.327542
0.310327
0.480451
0.460462
0.440662
0.421109
0.401856
0.382949
0.364428
0.346326
0.328692
0.311446
0.480725
0.460907
0.441267
0.421855
0.40272
0.383901
0.365436
0.347353
0.329692
0.312397
0.480955
0.461296
0.441801
0.422518
0.403488
0.384746
0.366325
0.348249
0.330549
0.313189
0.481145
0.461631
0.44227
0.423104
0.404167
0.385491
0.367101
0.34902
0.331271
0.313831
0.481296
0.461915
0.442676
0.423615
0.40476
0.386139
0.367771
0.349674
0.331864
0.314329
0.481411
0.462148
0.443016
0.424045
0.405259
0.386679
0.368321
0.350199
0.332323
0.314683
0.481493
0.462362
0.443351
0.424481
0.405768
0.387227
0.368867
0.350697
0.332723
0.314938
0.706327
0.702415
0.697266
0.692131
0.687097
0.682079
0.677054
0.672169
0.668321
0.668453
0.686556
0.682143
0.676617
0.671374
0.666227
0.660968
0.655561
0.650171
0.645743
0.645277
0.665082
0.660483
0.654943
0.649683
0.644419
0.63892
0.633143
0.627268
0.62228
0.621228
0.642149
0.637655
0.632295
0.627102
0.62178
0.616096
0.610001
0.603688
0.598183
0.596572
0.6183
0.613998
0.608888
0.603819
0.598496
0.592689
0.58634
0.579658
0.573692
0.571563
0.593778
0.589719
0.584916
0.580028
0.574766
0.568903
0.562374
0.555403
0.549041
0.546446
0.568773
0.565008
0.560571
0.555924
0.550786
0.544937
0.538308
0.531139
0.524451
0.52145
0.543483
0.540064
0.536046
0.531696
0.526748
0.520987
0.514342
0.507068
0.500132
0.496792
0.518104
0.515081
0.51153
0.507533
0.502839
0.497239
0.490664
0.483339
0.476331
0.472658
0.492825
0.490241
0.487203
0.483614
0.479234
0.473864
0.467421
0.460166
0.453241
0.449234
0.82277
0.816869
0.811545
0.806889
0.802985
0.799933
0.797823
0.796712
0.797076
0.801088
0.820632
0.814678
0.809346
0.804671
0.80073
0.797622
0.795441
0.79424
0.794486
0.798441
0.816358
0.810306
0.804963
0.80025
0.796232
0.793015
0.790687
0.789304
0.789351
0.793142
0.80996
0.80378
0.798424
0.793657
0.789528
0.786153
0.78361
0.781962
0.781721
0.785262
0.801465
0.795141
0.789775
0.784938
0.78067
0.777091
0.774274
0.772283
0.771672
0.774887
0.790896
0.784432
0.779068
0.774152
0.769721
0.765904
0.762762
0.760364
0.759311
0.76213
0.778322
0.771726
0.766378
0.761377
0.756768
0.752687
0.749181
0.746322
0.744767
0.747131
0.763722
0.757049
0.751758
0.746685
0.7419
0.737548
0.733655
0.730302
0.728201
0.730056
0.747321
0.740564
0.735349
0.7302
0.725245
0.720624
0.716338
0.71247
0.709794
0.7111
0.728342
0.722199
0.717156
0.711981
0.70692
0.70207
0.697402
0.69302
0.689757
0.690484
0.995155
0.985539
0.975968
0.966423
0.956912
0.947449
0.938047
0.928712
0.919452
0.9103
0.901271
0.89238
0.883646
0.87509
0.866736
0.858612
0.850749
0.84318
0.83594
0.829086
0.995117
0.985422
0.975771
0.966144
0.95655
0.947003
0.937515
0.928089
0.918745
0.909506
0.900385
0.891399
0.882565
0.873905
0.86544
0.857197
0.849206
0.841497
0.834097
0.827071
0.995043
0.985192
0.975381
0.965594
0.955838
0.946128
0.936472
0.926867
0.917354
0.90794
0.898636
0.889457
0.880423
0.871551
0.862863
0.85438
0.84613
0.838139
0.830421
0.823042
0.99493
0.984841
0.974787
0.964755
0.954756
0.944801
0.934897
0.925018
0.915244
0.905565
0.895988
0.886526
0.877196
0.868013
0.858995
0.850159
0.841527
0.833119
0.824928
0.817004
0.994783
0.984387
0.974022
0.963677
0.953359
0.943072
0.9328
0.922629
0.912527
0.902497
0.892555
0.882715
0.872989
0.863389
0.853927
0.844615
0.835466
0.826496
0.817673
0.808985
0.994591
0.983795
0.97302
0.962263
0.951538
0.940846
0.930144
0.91955
0.90902
0.898554
0.888163
0.877859
0.867649
0.85754
0.847539
0.83765
0.827876
0.818224
0.808641
0.798984
0.99438
0.983146
0.971934
0.960746
0.949574
0.938324
0.927219
0.916158
0.905131
0.894153
0.883235
0.87238
0.861592
0.850872
0.840217
0.82962
0.819066
0.808554
0.798025
0.78712
0.994095
0.982278
0.970477
0.95868
0.946809
0.935097
0.923423
0.911765
0.900139
0.888552
0.877008
0.865506
0.854043
0.842615
0.831213
0.819822
0.808417
0.796985
0.785481
0.773255
0.993862
0.981557
0.969202
0.956817
0.944548
0.932284
0.92002
0.907772
0.895546
0.883341
0.871154
0.85898
0.846811
0.83463
0.822413
0.810125
0.797707
0.785091
0.772213
0.758075
0.993399
0.980178
0.966998
0.953875
0.940758
0.927652
0.91456
0.901482
0.888415
0.875356
0.862296
0.849222
0.836117
0.822955
0.809699
0.796304
0.782709
0.768858
0.754706
0.739686
0.993248
0.979743
0.966232
0.952714
0.939194
0.925672
0.912143
0.898602
0.885042
0.871451
0.857817
0.844117
0.830325
0.816403
0.802302
0.787956
0.773275
0.758128
0.742333
0.725378
0.993174
0.979524
0.965869
0.952208
0.93854
0.924858
0.911158
0.897432
0.883671
0.869862
0.855987
0.842026
0.827948
0.813716
0.799281
0.784581
0.769532
0.754022
0.737918
0.721075
0.993105
0.979307
0.965502
0.951688
0.937859
0.924009
0.910131
0.896216
0.882252
0.868226
0.854119
0.839908
0.825564
0.81105
0.796321
0.78132
0.765978
0.750205
0.733911
0.717065
0.993032
0.979084
0.965125
0.951151
0.937157
0.923134
0.909075
0.894969
0.880802
0.866561
0.852226
0.837773
0.823175
0.808397
0.793399
0.77813
0.762533
0.746542
0.730091
0.713211
0.992961
0.978867
0.964758
0.950631
0.93648
0.922294
0.908064
0.893779
0.879425
0.864988
0.850446
0.83578
0.82096
0.805957
0.790734
0.775248
0.759455
0.743302
0.726742
0.709827
0.992893
0.978659
0.964406
0.950134
0.935833
0.921494
0.907105
0.892654
0.878129
0.863514
0.848789
0.833934
0.818923
0.803729
0.788321
0.772662
0.756717
0.740444
0.723808
0.706863
0.992828
0.97846
0.964071
0.949662
0.93522
0.920737
0.9062
0.891597
0.876916
0.862139
0.847251
0.83223
0.817054
0.801699
0.786136
0.770337
0.754272
0.737909
0.721221
0.704257
0.992767
0.978273
0.963756
0.949217
0.934645
0.920027
0.905354
0.890612
0.875789
0.860869
0.845835
0.830669
0.815351
0.799859
0.784169
0.768257
0.752098
0.735668
0.718945
0.701974
0.992709
0.978097
0.963462
0.948803
0.934109
0.919369
0.904572
0.889704
0.874753
0.859704
0.844543
0.829251
0.813811
0.798203
0.782408
0.766405
0.750174
0.733695
0.71695
0.699983
0.992656
0.977936
0.96319
0.948421
0.933617
0.918765
0.903855
0.888873
0.873809
0.858647
0.843373
0.827973
0.812429
0.796724
0.780842
0.764766
0.748478
0.731964
0.71521
0.698252
0.992607
0.977787
0.962942
0.948073
0.933168
0.918216
0.903204
0.888122
0.872957
0.857695
0.842325
0.826831
0.811198
0.795413
0.77946
0.763324
0.746994
0.730456
0.713699
0.696755
0.992563
0.977654
0.962719
0.94776
0.932765
0.917722
0.902621
0.88745
0.872196
0.856848
0.841394
0.82582
0.810113
0.79426
0.778249
0.762067
0.745704
0.72915
0.712396
0.695469
0.992523
0.977535
0.96252
0.947481
0.932407
0.917285
0.902105
0.886856
0.871526
0.856104
0.840577
0.824936
0.809166
0.793258
0.777199
0.760981
0.744593
0.728029
0.711282
0.694373
0.992488
0.977431
0.962346
0.947238
0.932095
0.916904
0.901656
0.88634
0.870944
0.855459
0.839872
0.824174
0.808353
0.792399
0.776302
0.760055
0.743649
0.727079
0.710341
0.693449
0.992459
0.977341
0.962197
0.94703
0.931828
0.916579
0.901273
0.885901
0.87045
0.854912
0.839275
0.82353
0.807666
0.791675
0.775549
0.759279
0.74286
0.726288
0.709558
0.692684
0.992434
0.977267
0.962073
0.946857
0.931606
0.916309
0.900956
0.885537
0.870041
0.85446
0.838782
0.822999
0.807102
0.791082
0.774932
0.758646
0.742217
0.725644
0.708923
0.692064
0.992414
0.977208
0.961974
0.946719
0.931429
0.916094
0.900703
0.885247
0.869716
0.854101
0.838392
0.82258
0.806656
0.790614
0.774446
0.758147
0.741712
0.72514
0.708427
0.69158
0.992399
0.977163
0.9619
0.946615
0.931296
0.915933
0.900514
0.885031
0.869474
0.853834
0.838101
0.822267
0.806325
0.790267
0.774086
0.757778
0.741339
0.724767
0.708061
0.691224
0.992389
0.977134
0.961851
0.946546
0.931208
0.915826
0.900389
0.884887
0.869313
0.853656
0.837908
0.82206
0.806106
0.790037
0.773848
0.757534
0.741093
0.724521
0.707819
0.69099
0.992384
0.977119
0.961827
0.946512
0.931164
0.915772
0.900326
0.884816
0.869233
0.853568
0.837812
0.821957
0.805996
0.789922
0.77373
0.757413
0.74097
0.724399
0.707699
0.690871
0.707039
0.686592
0.665211
0.642541
0.618937
0.594669
0.569909
0.544838
0.519641
0.494498
0.703389
0.68206
0.660755
0.638749
0.615882
0.592398
0.568456
0.544205
0.51981
0.495437
0.699413
0.678343
0.657491
0.636077
0.613787
0.590888
0.567552
0.543917
0.520138
0.496367
0.69569
0.675031
0.654576
0.633638
0.611858
0.589487
0.566697
0.543613
0.520376
0.497131
0.692375
0.672126
0.652033
0.63149
0.610146
0.588233
0.565916
0.543313
0.520556
0.497781
0.68944
0.66957
0.649796
0.629585
0.608617
0.587103
0.565203
0.543024
0.520692
0.498335
0.686859
0.667326
0.647823
0.627887
0.607243
0.586079
0.564544
0.542742
0.520789
0.498807
0.684601
0.665356
0.646078
0.626371
0.606004
0.585145
0.563933
0.542466
0.520853
0.499208
0.682633
0.663627
0.644529
0.625012
0.604883
0.58429
0.563363
0.542195
0.520888
0.499549
0.680922
0.662109
0.643153
0.62379
0.603863
0.583503
0.562828
0.541928
0.520898
0.499837
0.679438
0.660777
0.641929
0.622688
0.602933
0.582776
0.562326
0.541666
0.520885
0.500077
0.678158
0.65961
0.640838
0.621694
0.602082
0.582102
0.56185
0.541406
0.520853
0.500276
0.677059
0.658588
0.639866
0.620794
0.601302
0.581475
0.561399
0.54115
0.520803
0.500437
0.676124
0.657696
0.639
0.61998
0.600585
0.580889
0.56097
0.540896
0.520737
0.500565
0.675336
0.656922
0.63823
0.619242
0.599926
0.580342
0.560561
0.540644
0.520656
0.500661
0.674685
0.656254
0.637548
0.618575
0.599319
0.57983
0.560169
0.540394
0.52056
0.500728
0.674159
0.655685
0.636946
0.617973
0.59876
0.57935
0.559794
0.540144
0.520451
0.500768
0.673751
0.655209
0.636419
0.617431
0.598246
0.578898
0.559432
0.539894
0.520329
0.500781
0.673457
0.654824
0.635975
0.616962
0.597792
0.578492
0.559101
0.539658
0.520203
0.500775
0.673253
0.65448
0.635521
0.616448
0.59727
0.578006
0.558688
0.539347
0.520014
0.500719
)
;

boundaryField
{
    bottom
    {
        type            symmetryPlane;
    }
    right
    {
        type            fixedValue;
        value           uniform 0;
    }
    top
    {
        type            symmetryPlane;
    }
    left
    {
        type            fixedValue;
        value           uniform 1;
    }
    cylinder
    {
        type            zeroGradient;
    }
    defaultFaces
    {
        type            empty;
    }
}


// ************************************************************************* //
