/*--------------------------------*- C++ -*----------------------------------*\
| =========                 |                                                 |
| \\      /  F ield         | OpenFOAM: The Open Source CFD Toolbox           |
|  \\    /   O peration     | Version:  4.1                                   |
|   \\  /    A nd           | Web:      www.OpenFOAM.org                      |
|    \\/     M anipulation  |                                                 |
\*---------------------------------------------------------------------------*/
FoamFile
{
    version     2.0;
    format      ascii;
    class       surfaceScalarField;
    location    "1";
    object      phi;
}
// * * * * * * * * * * * * * * * * * * * * * * * * * * * * * * * * * * * * * //

dimensions      [0 3 -1 0 0 0 0];

internalField   nonuniform List<scalar> 
3890
(
0.000387646
-0.00462875
0.0042411
0.0011629
-0.00988527
0.00911002
0.00210466
-0.0125587
0.0116169
0.00309425
-0.0136486
0.012659
0.00407508
-0.0138652
0.0128844
0.00502389
-0.0136611
0.0127123
0.0059325
-0.0132931
0.0123845
0.00680203
-0.0128907
0.0120212
0.00764879
-0.0125152
0.0116684
-0.0121948
0.0113711
0.00847257
0.000371719
-0.00500047
0.00110029
-0.0106138
0.00197291
-0.0134313
0.00287986
-0.0145556
0.0037721
-0.0147575
0.00463208
-0.014521
0.00545671
-0.0141177
0.00625027
-0.0136843
0.00702049
-0.0132854
-0.0129535
0.00777911
0.000353065
-0.00535353
0.0010299
-0.0112907
0.00182801
-0.0142294
0.00264798
-0.0153755
0.00344887
-0.0155584
0.00421871
-0.0152909
0.00495792
-0.0148569
0.0056713
-0.0143976
0.00636346
-0.0139775
-0.0136236
0.00703365
0.000331475
-0.00568501
0.000951325
-0.0119105
0.00166942
-0.0149475
0.00239751
-0.0161036
0.00310276
-0.0162636
0.00377821
-0.0159663
0.0044266
-0.0155053
0.00505303
-0.0150241
0.00566105
-0.0145856
-0.0142119
0.00624934
0.000306723
-0.00599173
0.000864197
-0.012468
0.00149672
-0.01558
0.00212789
-0.0167348
0.00273297
-0.0168687
0.00330956
-0.0165429
0.00386244
-0.0160582
0.00439708
-0.0155587
0.00491672
-0.0151052
-0.0147156
0.00542038
0.000278624
-0.00627035
0.000768267
-0.0129577
0.00130978
-0.0161215
0.00183922
-0.0172642
0.00233984
-0.0173693
0.0028135
-0.0170166
0.00326675
-0.0165115
0.00370546
-0.0159974
0.00413284
-0.0155326
-0.0151311
0.00454831
0.000247065
-0.00651742
0.000663511
-0.0133741
0.00110891
-0.0165669
0.00153226
-0.0176876
0.00192466
-0.0177617
0.00229189
-0.0173838
0.00264202
-0.0168616
0.00298123
-0.0163366
0.00331267
-0.015864
-0.0154545
0.00363614
0.000212031
-0.00672945
0.000550194
-0.0137123
0.000894885
-0.0169116
0.00120839
-0.0180011
0.00148948
-0.0180428
0.00174752
-0.0176418
0.00199173
-0.0171058
0.00222849
-0.0165734
0.00246082
-0.0160964
-0.0156825
0.00268883
0.000173639
-0.00690309
0.000428928
-0.0139676
0.000668927
-0.0171516
0.000869614
-0.0182018
0.00103716
-0.0182104
0.00118405
-0.0177887
0.00132039
-0.0172421
0.00145253
-0.0167055
0.00158338
-0.0162272
-0.0158123
0.00171317
0.00013218
-0.00703527
0.00030067
-0.014136
0.000432812
-0.0172838
0.000518532
-0.0182875
0.000571194
-0.018263
0.000606085
-0.0178236
0.000633325
-0.0172694
0.000659514
-0.0167317
0.000687279
-0.016255
0.000717933
-0.015843
0.000432154
-0.000432154
0.00138895
-0.000956794
0.00262919
-0.00124025
0.00399555
-0.00136635
0.00539418
-0.00139864
0.00677545
-0.00138126
0.00811713
-0.00134169
0.00941219
-0.00129505
0.0106604
-0.00124824
-0.00120179
0.0118622
0.000432624
-0.000864777
0.00138606
-0.00191023
0.00262238
-0.00247657
0.00398349
-0.00272747
0.00537602
-0.00279117
0.00675092
-0.00275615
0.00808625
-0.00267702
0.00937504
-0.00258385
0.0106172
-0.00249041
-0.00239799
0.0118134
0.000431936
-0.00129671
0.00138139
-0.00285968
0.00260947
-0.00370465
0.00395969
-0.00407769
0.00533996
-0.00417144
0.00670213
-0.00411833
0.00802479
-0.00399968
0.00930114
-0.0038602
0.0105312
-0.00372044
-0.00358272
0.0117159
0.000431078
-0.00172779
0.0013739
-0.00380251
0.00258948
-0.00492022
0.00392323
-0.00541145
0.00528513
-0.00553334
0.00662851
-0.0054617
0.0079327
-0.00530387
0.00919103
-0.00511853
0.0104034
-0.0049328
-0.00475045
0.0115711
0.000429763
-0.00215755
0.00136315
-0.0047359
0.00256146
-0.00611853
0.00387284
-0.00672283
0.00521016
-0.00687066
0.00652892
-0.00678046
0.00780952
-0.00658447
0.00904528
-0.0063543
0.0102355
-0.00612303
-0.0058964
0.0113815
0.000427665
-0.00258522
0.00134822
-0.00565645
0.00252378
-0.00729408
0.00380616
-0.00800521
0.00511218
-0.00817668
0.00640039
-0.00806867
0.00765282
-0.0078369
0.00886276
-0.00756424
0.0100279
-0.00728819
-0.0070162
0.0111477
0.000424323
-0.00300954
0.00132779
-0.00655992
0.002474
-0.00844029
0.00371949
-0.0092507
0.00498615
-0.00944335
0.00623675
-0.00931927
0.00745609
-0.00905624
0.0086381
-0.00874625
0.00977822
-0.00842831
-0.00810975
0.0108718
0.000419134
-0.00342868
0.00130018
-0.00744097
0.00240901
-0.00954912
0.00360786
-0.0104495
0.00482462
-0.0106601
0.00602745
-0.0105221
0.00720565
-0.0102344
0.00835591
-0.00989652
0.00947231
-0.00954471
-0.00917786
0.0105404
0.000411471
-0.00384015
0.00126374
-0.00829324
0.00232583
-0.0106112
0.00346613
-0.0115898
0.00461874
-0.0118127
0.00575761
-0.011661
0.00687836
-0.0113552
0.00798557
-0.0110037
0.00908237
-0.0106415
-0.0102403
0.0101448
0.000400954
0.00121773
0.00222346
0.00329264
0.00436434
0.00541561
0.0064449
0.00746235
0.00848924
0.00962004
0.0123759
-0.000513706
0.0128157
-0.000439822
0.0131883
-0.000372587
0.0135018
-0.00031349
0.0137639
-0.000262089
0.0139813
-0.000217378
0.0141598
-0.000178498
0.0143044
-0.000144654
0.0144195
-0.000115072
0.0145085
-8.90497e-05
0.0145745
-6.59664e-05
0.0146198
-4.52666e-05
0.0146462
-2.63879e-05
0.0146545
-8.32935e-06
0.0146481
6.38826e-06
0.0146304
1.76802e-05
0.0146018
2.86241e-05
0.0145628
3.89901e-05
0.0145143
4.84946e-05
5.57953e-05
0.0123262
-0.00102653
0.0127662
-0.00087981
0.0131396
-0.000745914
0.0134546
-0.000628567
0.013719
-0.000526469
0.0139392
-0.000437554
0.0141209
-0.000360199
0.0142691
-0.000292845
0.014388
-0.000233957
0.0144811
-0.000182145
0.0145513
-0.000136191
0.014601
-9.50111e-05
0.0146322
-5.75424e-05
0.0146461
-2.22371e-05
0.0146439
8.64444e-06
0.0146305
3.10744e-05
0.0146061
5.29822e-05
0.0145714
7.37001e-05
0.0145272
9.27276e-05
0.000107467
0.0122271
-0.00153769
0.0126673
-0.00132003
0.0130421
-0.00112078
0.0133605
-0.000946943
0.0136296
-0.000795508
0.0138554
-0.00066337
0.0140435
-0.000548325
0.0141987
-0.000448102
0.0143252
-0.00036043
0.0144264
-0.000283277
0.014505
-0.000214877
0.0145637
-0.000153678
0.0146044
-9.82108e-05
0.0146288
-4.66887e-05
0.0146335
3.99592e-06
0.0146285
3.60525e-05
0.0146128
6.86507e-05
0.0145869
9.96123e-05
0.0145515
0.000128182
0.000150574
0.0120782
-0.00204474
0.0125176
-0.00175943
0.0128943
-0.00149752
0.0132174
-0.00127004
0.0134932
-0.00107134
0.0137274
-0.000897523
0.0139251
-0.000746039
0.0140909
-0.000613937
0.0142288
-0.000498258
0.0143419
-0.000396384
0.0144331
-0.000306047
0.0145046
-0.000225256
0.0145586
-0.000152198
0.0145969
-8.50032e-05
0.0146207
-1.98135e-05
0.0146276
2.91929e-05
0.0146244
7.18058e-05
0.0146112
0.000112831
0.0145886
0.000150806
0.000180831
0.011881
-0.00254428
0.012318
-0.00219638
0.0126969
-0.00187645
0.0130262
-0.00159938
0.013311
-0.00135617
0.0135563
-0.00114277
0.0137667
-0.000956484
0.0139465
-0.000793745
0.0140993
-0.000651027
0.0142282
-0.000525225
0.0143358
-0.000413643
0.0144244
-0.000313929
0.0144962
-0.000223999
0.0145531
-0.000141853
0.0145982
-6.49621e-05
0.0146188
8.64792e-06
0.014633
5.75914e-05
0.0146375
0.000108317
0.0146326
0.000155668
0.000193753
0.0116343
-0.00303085
0.0120657
-0.00262775
0.0124462
-0.00225697
0.0127826
-0.00193576
0.0130783
-0.00165191
0.0133375
-0.00140196
0.0135641
-0.00118312
0.0137617
-0.00099136
0.0139335
-0.000822793
0.0140822
-0.000673961
0.0142104
-0.000541828
0.0143202
-0.000423743
0.0144136
-0.000317378
0.0144924
-0.000220629
0.0145589
-0.000131518
0.014615
-4.73694e-05
0.014648
2.45518e-05
0.014674
8.23437e-05
0.0146907
0.000138958
0.000184906
0.0113396
-0.00349865
0.0117634
-0.00305161
0.0121465
-0.00264001
0.0124915
-0.00228078
0.0128002
-0.00196057
0.0130755
-0.00167734
0.0133208
-0.00142837
0.0135389
-0.00120944
0.0137326
-0.00101648
0.0139044
-0.000845782
0.0140566
-0.000694042
0.0141912
-0.00055837
0.0143101
-0.000436236
0.0144149
-0.00032539
0.0145072
-0.000223819
0.0145896
-0.000129784
0.0146542
-4.00775e-05
0.0147033
3.32806e-05
0.0147469
9.53232e-05
0.000149278
0.0109813
-0.00393949
0.0113948
-0.00346511
0.0117826
-0.00302782
0.0121408
-0.00263897
0.0124683
-0.0022881
0.0127661
-0.00197517
0.0130359
-0.00169812
0.0132798
-0.00145333
0.0135002
-0.00123692
0.0136995
-0.00104512
0.0138799
-0.000874451
0.0140434
-0.000721814
0.0141916
-0.000584479
0.0143263
-0.000460043
0.0144489
-0.000346406
0.014561
-0.000241912
0.0146664
-0.000145493
0.0147546
-5.4934e-05
0.0148258
2.41841e-05
8.21955e-05
0.0105621
-0.00435687
0.0109705
-0.00387345
0.0113648
-0.00342218
0.0117357
-0.00300982
0.0120817
-0.00263411
0.0124026
-0.00229606
0.0126988
-0.0019943
0.0129715
-0.00172604
0.0132224
-0.00148784
0.0134534
-0.00127609
0.0136662
-0.00108729
0.0138627
-0.000918269
0.0140444
-0.000766185
0.0142128
-0.00062849
0.0143693
-0.000502917
0.0145149
-0.000387498
0.0146502
-0.000280789
0.0147775
-0.000182223
0.0148934
-9.16954e-05
-1.60025e-05
0.0100096
-0.00474644
0.010445
-0.00430888
0.0108831
-0.00386026
0.0112976
-0.00342433
0.0116821
-0.00301859
0.0120371
-0.00265104
0.0123651
-0.00232234
0.0126691
-0.00202998
0.0129516
-0.00177033
0.0132149
-0.00153946
0.0134612
-0.00133361
0.0136924
-0.0011494
0.01391
-0.000983786
0.0141155
-0.000834054
0.0143104
-0.000697783
0.0144957
-0.000572829
0.0146723
-0.000457385
0.0148404
-0.000350317
0.015001
-0.000252245
-0.000171552
0.015196
-0.00410103
-0.0158414
0.014769
-0.00388191
0.0144763
-0.00356755
0.0142749
-0.00322292
0.0141349
-0.00287862
0.0140374
-0.00255347
0.0139705
-0.00225545
0.0139264
-0.00198593
0.0138994
-0.00174331
0.013885
-0.00152501
0.0138796
-0.00132826
0.0138806
-0.0011504
0.0138858
-0.000989019
0.0138937
-0.000841871
0.0139028
-0.000706919
0.0139123
-0.000582307
0.0139213
-0.000466431
0.0139292
-0.000358218
0.0139354
-0.000258448
-0.000176845
0.0156318
-0.0036076
-0.0161253
0.0152119
-0.00346192
0.0148842
-0.00323988
0.0146362
-0.00297491
0.0144522
-0.00269463
0.014317
-0.0024183
0.0142185
-0.00215687
0.0141473
-0.00191479
0.0140968
-0.00169284
0.0140619
-0.0014901
0.0140387
-0.00130501
0.0140241
-0.00113581
0.0140158
-0.000980744
0.014012
-0.000838089
0.0140113
-0.000706207
0.0140126
-0.000583556
0.0140149
-0.00046876
0.0140176
-0.000360911
0.0140201
-0.000260937
-0.000178767
0.0158693
-0.0032027
-0.0162742
0.015499
-0.00309165
0.0151844
-0.00292525
0.0149286
-0.00271906
0.0147266
-0.00249262
0.0145699
-0.00226162
0.0144496
-0.00203656
0.0143578
-0.00182303
0.0142883
-0.00162334
0.0142361
-0.00143789
0.0141973
-0.00126622
0.0141689
-0.0011074
0.0141485
-0.000960311
0.0141341
-0.000823742
0.0141244
-0.000696448
0.014118
-0.000577203
0.0141141
-0.000464877
0.014112
-0.000358749
0.0141109
-0.000259886
-0.000178236
0.0160291
-0.00284635
-0.0163855
0.0157006
-0.00276309
0.01541
-0.00263466
0.0151625
-0.00247161
0.0149578
-0.00228793
0.0147918
-0.00209563
0.0146589
-0.00190358
0.0145531
-0.00171731
0.0144695
-0.00153973
0.0144037
-0.0013721
0.0143522
-0.00121473
0.0143122
-0.00106736
0.0142813
-0.000929431
0.0142578
-0.000800165
0.01424
-0.000678688
0.0142269
-0.000564068
0.0142174
-0.000455421
0.0142109
-0.000352218
0.0142066
-0.000255656
-0.000175623
0.0161498
-0.00252646
-0.0164697
0.015853
-0.00246632
0.0155852
-0.0023668
0.0153506
-0.00223701
0.0151502
-0.00208753
0.0149821
-0.00192758
0.014843
-0.00176442
0.0147287
-0.00160303
0.0146354
-0.00144642
0.0145596
-0.00129628
0.0144982
-0.0011534
0.0144489
-0.001018
0.0144094
-0.000889952
0.0143781
-0.000768843
0.0143535
-0.000654113
0.0143345
-0.000545097
0.0143202
-0.000441133
0.0143099
-0.000341876
0.0143029
-0.000248622
-0.000171049
0.0162414
-0.00223743
-0.0165304
0.015971
-0.00219592
0.0157237
-0.0021195
0.0155029
-0.00201626
0.0153099
-0.00189455
0.0151439
-0.0017616
0.0150029
-0.00162337
0.0148841
-0.00148419
0.0147846
-0.00134694
0.0147017
-0.00121344
0.0146331
-0.00108475
0.0145765
-0.000961428
0.0145302
-0.000843617
0.0144925
-0.000731206
0.0144623
-0.000623885
0.0144384
-0.000521218
0.01442
-0.000422741
0.0144064
-0.000328266
0.014397
-0.000239157
-0.000164761
0.0163092
-0.00197571
-0.0165709
0.0160622
-0.00194895
0.0158338
-0.00189109
0.0156269
-0.00180932
0.0154427
-0.00171035
0.0152811
-0.0016
0.0151409
-0.00148319
0.0150204
-0.00136363
0.0149174
-0.00124396
0.0148299
-0.001126
0.0147561
-0.00101093
0.0146942
-0.00089947
0.0146425
-0.00079198
0.0145999
-0.000688552
0.0145651
-0.000589077
0.0145371
-0.000493301
0.0145153
-0.000400928
0.014499
-0.000311904
0.0144874
-0.000227622
-0.000157011
0.0163581
-0.00173866
-0.0165951
0.0161323
-0.00172319
0.0159214
-0.00168014
0.0157278
-0.00161576
0.015553
-0.00153549
0.015397
-0.00144409
0.0152595
-0.00134564
0.0151392
-0.00124332
0.0150347
-0.0011395
0.0149446
-0.00103588
0.0148673
-0.000933666
0.0148015
-0.000833671
0.0147459
-0.00073638
0.0146994
-0.000642026
0.014661
-0.000550646
0.0146298
-0.000462131
0.0146052
-0.00037632
0.0145866
-0.000293265
0.0145733
-0.000214357
-0.000148028
0.016392
-0.00152378
-0.0166069
0.0161855
-0.00151667
0.0159906
-0.00148526
0.0158097
-0.00143491
0.0156443
-0.00137004
0.0154948
-0.00129455
0.015361
-0.00121184
0.0152423
-0.00112463
0.0151378
-0.00103499
0.0150464
-0.000944507
0.014967
-0.000854327
0.0148987
-0.000765288
0.0148402
-0.000677939
0.0147908
-0.000592606
0.0147496
-0.000509427
0.0147159
-0.000428402
0.014689
-0.000349475
0.0146685
-0.000272779
0.0146538
-0.000199672
-0.000138027
0.0164145
-0.00132858
-0.0166097
0.0162252
-0.00132742
0.016045
-0.00130504
0.015876
-0.00126596
0.0157197
-0.00121376
0.0155768
-0.00115163
0.0154474
-0.00108242
0.0153312
-0.00100843
0.0152277
-0.00093148
0.0151362
-0.000852964
0.0150558
-0.000773974
0.0149858
-0.000695319
0.0149255
-0.000617573
0.014874
-0.000541107
0.0148307
-0.000466127
0.014795
-0.000392712
0.0147664
-0.000320881
0.0147444
-0.000250824
0.0147286
-0.000183844
-0.0001272
0.0164283
-0.00115066
-0.0166062
0.0162544
-0.00115353
0.0160874
-0.00113804
0.0159294
-0.00110796
0.0157818
-0.00106618
0.0156455
-0.00101529
0.0155207
-0.000957666
0.0154076
-0.000895261
0.0153057
-0.000829627
0.0152148
-0.000762008
0.0151342
-0.00069339
0.0150634
-0.000624535
0.0150018
-0.000556005
0.0149489
-0.000488189
0.0149041
-0.000421332
0.014867
-0.000355562
0.014837
-0.000290953
0.0148139
-0.000227729
0.0147972
-0.000167115
-0.000115716
0.0164359
-0.000987713
-0.0165988
0.0162755
-0.000993142
0.0161203
-0.000982823
0.0159722
-0.000959908
0.0158327
-0.000926675
0.0157027
-0.000885247
0.0155826
-0.000837593
0.0154727
-0.00078535
0.0153729
-0.000729839
0.015283
-0.00067214
0.0152028
-0.000613131
0.0151317
-0.000553504
0.0150695
-0.000493791
0.0150157
-0.000434375
0.0149699
-0.000375513
0.0149317
-0.000317365
0.0149008
-0.000260037
0.0148768
-0.000203769
0.0148594
-0.000149691
-0.000103722
0.016439
-0.00083762
-0.0165891
0.0162903
-0.00084446
0.0161455
-0.00083796
0.0160063
-0.000820707
0.0158741
-0.000794501
0.0157499
-0.000761065
0.0156343
-0.000722021
0.0155277
-0.000678729
0.0154302
-0.0006323
0.0153417
-0.000583656
0.0152621
-0.000533559
0.0151913
-0.000482626
0.0151288
-0.000431339
0.0150745
-0.000380058
0.015028
-0.000329037
0.0149891
-0.000278447
0.0149575
-0.000228412
0.0149329
-0.000179172
0.0149149
-0.000131743
-9.13402e-05
0.0164392
-0.000698403
-0.0165784
0.0163005
-0.0007058
0.0161646
-0.000702051
0.0160332
-0.000689259
0.0159075
-0.00066884
0.0157886
-0.000642185
0.0156772
-0.000610619
0.0155738
-0.000575259
0.0154785
-0.000537022
0.0153915
-0.000496681
0.0153128
-0.000454882
0.0152424
-0.000412157
0.01518
-0.000368929
0.0151254
-0.000325525
0.0150786
-0.00028218
0.0150392
-0.000239061
0.0150071
-0.000196299
0.014982
-0.000154119
0.0149637
-0.000113412
-7.86706e-05
0.0164375
-0.000568251
-0.0165677
0.0163073
-0.000575575
0.016179
-0.000573745
0.0160542
-0.000564455
0.0159342
-0.000548821
0.0158199
-0.000527962
0.0157123
-0.000502947
0.0156117
-0.000474673
0.0155185
-0.000443885
0.0154331
-0.000411209
0.0153554
-0.000377178
0.0152854
-0.000342235
0.0152232
-0.000306738
0.0151687
-0.000270969
0.0151217
-0.000235137
0.015082
-0.000199394
0.0150495
-0.000163864
0.0150242
-0.00012875
0.0150056
-9.48084e-05
-6.57936e-05
0.0164349
-0.000445515
-0.0165576
0.0163116
-0.000452306
0.0161896
-0.000451741
0.0160703
-0.000445185
0.015955
-0.000433535
0.0158447
-0.000417684
0.0157403
-0.000398474
0.0156422
-0.000376607
0.015551
-0.000352661
0.0154669
-0.000327126
0.0153901
-0.000300421
0.0153208
-0.000272901
0.0152589
-0.000244852
0.0152045
-0.000216506
0.0151574
-0.000188038
0.0151175
-0.000159577
0.0150849
-0.000131232
0.0150593
-0.000103174
0.0150405
-7.60162e-05
-5.27725e-05
0.016432
-0.000328717
-0.0165488
0.0163143
-0.000334597
0.0161973
-0.000334762
0.0160824
-0.000330327
0.0159709
-0.000322035
0.0158638
-0.000310584
0.0157619
-0.000296607
0.015666
-0.00028062
0.0155763
-0.000263044
0.0154935
-0.000244237
0.0154175
-0.000224509
0.0153488
-0.000204121
0.0152872
-0.00018329
0.0152329
-0.00016219
0.0151858
-0.000140957
0.0151459
-0.000119693
0.0151132
-9.84845e-05
0.0150875
-7.7465e-05
0.0150685
-5.70994e-05
-3.96561e-05
0.0164296
-0.000216412
-0.0165419
0.0163161
-0.00022109
0.0162028
-0.000221497
0.0160912
-0.000218704
0.0159825
-0.000213318
0.0158777
-0.00020584
0.0157778
-0.000196694
0.0156834
-0.000186213
0.015595
-0.000174667
0.0155131
-0.000162289
0.0154379
-0.000149277
0.0153695
-0.000135804
0.0153083
-0.000122014
0.0152541
-0.000108025
0.0152071
-9.39271e-05
0.0151672
-7.97916e-05
0.0151344
-6.56779e-05
0.0151086
-5.16775e-05
0.0150896
-3.81039e-05
-2.64823e-05
0.0164285
-0.000107692
-0.0165373
0.0163178
-0.000110318
0.0162068
-0.000110517
0.0160971
-0.000109048
0.0159901
-0.000106324
0.0158869
-0.000102593
0.0157882
-9.80511e-05
0.0156949
-9.2853e-05
0.0156073
-8.71267e-05
0.015526
-8.09825e-05
0.0154513
-7.45176e-05
0.0153833
-6.78166e-05
0.0153222
-6.0951e-05
0.0152682
-5.39795e-05
0.0152212
-4.69481e-05
0.0151813
-3.98928e-05
0.0151485
-3.28438e-05
0.0151226
-2.58451e-05
0.0151036
-1.90541e-05
-1.33048e-05
0.0164303
-0.016538
0.01632
0.0162094
0.0161004
0.0159941
0.0158915
0.0157934
0.0157006
0.0156134
0.0155325
0.0154579
0.0153901
0.0153292
0.0152752
0.0152283
0.0151884
0.0151555
0.0151297
0.0151106
0.0155373
0.000679699
-0.015499
0.0155789
0.00167158
0.0156213
0.00264637
0.0156621
0.00359536
0.0156989
0.00451151
0.0157299
0.00538939
0.0157535
0.00622575
0.0157697
0.00701736
0.015768
0.00778082
0.00839922
0.0152332
0.000639619
-0.0151931
0.0152896
0.00161516
0.0153612
0.0025748
0.015446
0.00351058
0.0155418
0.00441569
0.0156464
0.00528481
0.0157575
0.00611468
0.0158741
0.00690068
0.015989
0.00766595
0.00826294
0.0149718
0.000601354
-0.0149336
0.0150353
0.00155173
0.0151225
0.00248753
0.015232
0.00340108
0.0153619
0.00428581
0.0155103
0.00513638
0.0156759
0.00594912
0.0158589
0.00671769
0.016056
0.00746882
0.00804475
0.0147497
0.000564059
-0.0147124
0.0148196
0.00148175
0.0149212
0.00238596
0.0150529
0.00326938
0.0152131
0.00412562
0.0154001
0.00494935
0.0156126
0.0057367
0.0158498
0.00648045
0.0161106
0.00720799
0.0077699
0.014559
0.000527553
-0.0145225
0.0146344
0.00140632
0.0147478
0.0022726
0.0148978
0.0031194
0.0150828
0.00394056
0.0153013
0.00473083
0.0155517
0.00548631
0.0158326
0.00619961
0.0161444
0.0068962
0.00744456
0.0143944
0.000491615
-0.0143584
0.0144743
0.00132642
0.0145972
0.00214963
0.014762
0.0029546
0.0149672
0.0037354
0.0152111
0.00448692
0.0154921
0.0052053
0.0158082
0.00588355
0.0161608
0.00654353
0.00707499
0.0142516
0.000456048
-0.014216
0.0143352
0.00124282
0.014466
0.00201882
0.0146429
0.00277774
0.0148643
0.00351393
0.0151288
0.00422248
0.0154344
0.00489962
0.015779
0.00553903
0.0161641
0.00615837
0.00666816
0.0141274
0.000420714
-0.0140921
0.0142141
0.00115614
0.0143513
0.00188158
0.014538
0.00259108
0.0147727
0.00327927
0.0150536
0.0039415
0.0153792
0.00457409
0.0157467
0.00517154
0.0161576
0.00574739
0.00623068
0.0140194
0.000385526
-0.0139842
0.0141086
0.00106692
0.0142511
0.00173908
0.0144458
0.00239641
0.0146911
0.00303389
0.0149855
0.00364713
0.015327
0.00423258
0.015713
0.00478553
0.0161446
0.00531585
0.00576836
0.0139255
0.000350424
-0.0138904
0.0140169
0.000975587
0.0141637
0.00159224
0.0143649
0.0021952
0.014619
0.00277979
0.0149242
0.0033419
0.0152786
0.00387818
0.0156796
0.00438459
0.0161274
0.00486799
0.00528615
0.0138443
0.000315371
-0.0138092
0.0139374
0.000882481
0.0140878
0.00144182
0.0142944
0.00198862
0.0145556
0.00251856
0.0148697
0.00302786
0.0152345
0.00351336
0.0156474
0.00397165
0.0161082
0.00440716
0.00478816
0.0137743
0.000280341
-0.0137393
0.0138689
0.000787897
0.0140223
0.00128843
0.0142333
0.0017776
0.0145004
0.00225149
0.0148216
0.00270664
0.0151948
0.00314014
0.0156174
0.00354909
0.0160884
0.00393611
0.00427778
0.0137146
0.000245315
-0.0136796
0.0138104
0.000692073
0.0139663
0.00113257
0.014181
0.00156293
0.0144528
0.00197963
0.0147799
0.00237959
0.0151599
0.00276015
0.0155901
0.00311887
0.0160691
0.00345706
0.00375781
0.0136643
0.000210283
-0.0136292
0.0137611
0.000595207
0.0139191
0.000974655
0.0141367
0.00134524
0.0144125
0.00170386
0.0147443
0.00204782
0.0151297
0.00237475
0.0155659
0.00268261
0.0160511
0.00297185
0.00323054
0.0136225
0.000175238
-0.0135875
0.0137203
0.000497467
0.0138799
0.000815037
0.0141001
0.00112506
0.014379
0.00142491
0.0147146
0.00171225
0.0151042
0.00198508
0.0155452
0.00224169
0.016035
0.002482
0.00269789
0.0135887
0.000140181
-0.0135536
0.0136872
0.000398994
0.0138482
0.000654003
0.0140704
0.000902849
0.0143519
0.00114338
0.0146905
0.00137368
0.0150835
0.0015921
0.0155279
0.00179725
0.0160211
0.00198881
0.00216144
0.0135622
0.000105119
-0.0135271
0.0136613
0.000299912
0.0138235
0.000491793
0.0140474
0.000678961
0.014331
0.000859768
0.0146719
0.00103274
0.0150674
0.0011966
0.0155144
0.00135028
0.0160098
0.00149335
0.00162251
0.0135424
7.00674e-05
-0.0135073
0.0136419
0.00020034
0.0138051
0.000328632
0.0140303
0.000453728
0.0143156
0.00057451
0.0146584
0.000689974
0.0150557
0.000799229
0.0155045
0.000901523
0.0160014
0.000996437
0.00108203
0.0135288
3.50308e-05
-0.0134937
0.0136288
0.000100339
0.0137927
0.000164656
0.0140191
0.000227368
0.0143057
0.000287913
0.0146499
0.000345778
0.0150486
0.000400491
0.0154985
0.000451617
0.0159962
0.000498802
0.000540947
0.0135201
-0.013485
0.0136204
0.0137851
0.0140124
0.0143003
0.0146461
0.0150466
0.0154982
0.015997
0.00772876
0.0117895
-0.0109873
-0.00853088
0.00685623
0.0121262
-0.0112537
0.0059589
0.0125202
-0.0116228
0.00502774
0.0129531
-0.012022
0.00406083
0.0134063
-0.0124394
0.00306776
0.0138216
-0.0128285
0.00207401
0.0140149
-0.0130211
0.00113741
0.0135379
-0.0126013
0.000375071
0.0114562
-0.0106939
0.00601856
-0.00564349
0.00694204
0.0126013
-0.00775391
0.00614023
0.012928
0.00532851
0.0133319
0.00449204
0.0137896
0.00362347
0.0142749
0.00272933
0.0147158
0.00183482
0.0149094
0.000996453
0.0143763
0.000322791
0.0121299
0.00634135
0.00619438
0.0133254
-0.00691843
0.00546165
0.0136608
0.00472111
0.0140724
0.00396379
0.0145469
0.00318307
0.0150556
0.00238368
0.0155151
0.00158888
0.0157042
0.000851589
0.0151136
0.000269492
0.012712
0.00661085
0.00542074
0.0139629
-0.0060583
0.00476886
0.0143126
0.00410688
0.0147344
0.00343095
0.0152229
0.00273786
0.0157487
0.0020332
0.0162198
0.00133931
0.0163981
0.000705082
0.0157478
0.000216084
0.013201
0.00682693
0.00461412
0.0145118
-0.00516299
0.0040503
0.0148764
0.00347454
0.0153102
0.00288587
0.0158115
0.00228432
0.0163503
0.00167727
0.0168269
0.00108682
0.0169885
0.000557789
0.0162769
0.000162938
0.0135958
0.00698987
0.00377652
0.0149693
-0.00423397
0.00330501
0.015348
0.00282128
0.0157939
0.0023258
0.016307
0.00182087
0.0168552
0.00131552
0.0173322
0.000831724
0.0174723
0.000410161
0.0166984
0.000110243
0.0138957
0.00710011
0.00291213
0.0153333
-0.00327615
0.0025359
0.0157242
0.00214863
0.0161812
0.00175146
0.0167042
0.00134808
0.0172586
0.000948632
0.0177317
0.000574652
0.0178463
0.000262529
0.0170105
5.8182e-05
0.0141001
0.00715829
0.00202631
0.0156015
-0.00229456
0.00174813
0.0160024
0.00146086
0.0164684
0.00116607
0.016999
0.000868391
0.0175563
0.000578475
0.0180216
0.000316773
0.018108
0.000114298
0.017213
7.3646e-06
0.014207
0.00716566
0.00112587
0.0157717
-0.00129598
0.000948155
0.0161801
0.000763687
0.0166529
0.000574226
0.0171884
0.000385517
0.017745
0.000207705
0.0181994
5.89976e-05
0.0182567
-3.42588e-05
0.0173063
-4.22627e-05
0.014215
0.00712339
0.000218142
-0.00028947
0.000143233
6.44139e-05
-1.65229e-05
-9.51811e-05
-0.000158803
-0.000189608
-0.000167107
-8.81271e-05
0.0110817
0.00115027
-0.012232
0.00989036
0.00119137
0.00865497
0.00123539
0.00737138
0.00128359
0.0060354
0.00133598
0.00464822
0.00138718
0.00322866
0.00141956
0.00183997
0.00138868
0.000643509
0.00119647
0.000643508
0.0110289
0.00229664
-0.0121752
0.00984185
0.00237838
0.00861127
0.00246597
0.00733288
0.00256198
0.00600254
0.00266632
0.00462151
0.00276821
0.00320848
0.00283259
0.001827
0.00277017
0.000639663
0.0023838
0.00128317
0.0109229
0.00343487
-0.0120611
0.00974474
0.00355656
0.00852382
0.00368689
0.00725583
0.00382997
0.00593676
0.00398539
0.00456816
0.00413681
0.00316904
0.00423171
0.00180279
0.00413643
0.000629845
0.00355674
0.00191302
0.0107634
0.00456027
-0.0118888
0.00959881
0.00472118
0.00839246
0.00489324
0.00714008
0.00508236
0.00583792
0.00528755
0.00448796
0.00548676
0.00310965
0.00561002
0.00176613
0.00547994
0.000615473
0.0047074
0.00252849
0.0105518
0.00566897
-0.0116605
0.00940491
0.00586805
0.00821758
0.00608057
0.00698561
0.00631432
0.00570575
0.00656741
0.00438058
0.00681193
0.00303006
0.00696054
0.00171702
0.00679299
0.000596337
0.00582808
0.00312483
0.0102871
0.0067557
-0.0113738
0.00916256
0.0069926
0.00799872
0.00724441
0.0067919
0.00752115
0.00553961
0.0078197
0.00424537
0.00810617
0.00292978
0.00827613
0.00165517
0.0080676
0.000572313
0.00691094
0.00369714
0.00997632
0.00781966
-0.0110403
0.00887557
0.00809335
0.00773727
0.00838271
0.00655871
0.0086997
0.00533854
0.00903987
0.00408128
0.00936343
0.00280802
0.00954939
0.00158017
0.00929545
0.000543269
0.00794784
0.00424041
0.00961386
0.0088557
-0.0106499
0.0085381
0.00916911
0.00742836
0.00949245
0.00628193
0.00984613
0.00509921
0.0102226
0.00388595
0.0105767
0.00266337
0.010772
0.00149135
0.0104675
0.00050903
0.00893017
0.00474944
0.00922269
0.00988588
-0.0102529
0.00816031
0.0102315
0.00707283
0.0105799
0.00595759
0.0109614
0.00481716
0.011363
0.00365619
0.0117377
0.00249409
0.0119341
0.00138806
0.0115735
0.000469464
0.00984876
0.0052189
0.00867762
-0.00977907
0.00765541
0.00661252
0.0055519
0.00447548
0.0033846
0.00229754
0.0012697
0.000424587
0.0143616
-6.37359e-05
0.0144218
-6.02295e-05
0.0144752
-5.33602e-05
0.0145196
-4.44052e-05
0.0145535
-3.39066e-05
0.0145758
-2.22689e-05
0.0145856
-9.86871e-06
0.014581
4.58068e-06
0.0145564
2.46669e-05
0.0145114
4.5011e-05
0.0144442
6.71207e-05
0.0143526
9.16022e-05
0.0142336
0.000119014
0.0140836
0.000149986
0.0138984
0.00018525
0.0136727
0.000225658
0.0134006
0.000272177
0.0130747
0.000325867
0.0126871
0.000387595
0.000455092
0.0143775
-0.000123457
0.0144335
-0.000116277
0.0144826
-0.000102455
0.0145227
-8.45141e-05
0.0145523
-6.35369e-05
0.0145704
-4.03613e-05
0.0145764
-1.58642e-05
0.014566
1.50434e-05
0.0145365
5.41809e-05
0.0144869
9.45988e-05
0.0144154
0.000138591
0.0143197
0.00018733
0.0141968
0.000241925
0.0140431
0.00030362
0.0138545
0.000373867
0.0136258
0.000454368
0.0133509
0.000547045
0.0130228
0.000653997
0.0126331
0.000777303
0.000912958
0.0144081
-0.000174697
0.0144555
-0.000163653
0.0144959
-0.000142824
0.0145273
-0.000115913
0.0145483
-8.45686e-05
0.0145579
-5.00186e-05
0.0145561
-1.40294e-05
0.0145349
3.62851e-05
0.0144959
9.31597e-05
0.0144374
0.000153129
0.0143573
0.000218604
0.0142535
0.00029121
0.0141228
0.000372578
0.0139619
0.000464546
0.0137665
0.000569266
0.0135316
0.000689278
0.0132512
0.000827452
0.0129183
0.000986824
0.0125245
0.00117117
0.00137629
0.0144534
-0.000213177
0.0144879
-0.000198116
0.0145153
-0.000170185
0.0145335
-0.000134177
0.0145413
-9.23908e-05
0.014538
-4.66774e-05
0.0145238
1.36175e-07
0.0144864
7.37528e-05
0.0144328
0.000146739
0.0143606
0.000225323
0.0142676
0.000311608
0.0141513
0.000407483
0.0140089
0.000515029
0.0138368
0.000636626
0.013631
0.000775068
0.0133866
0.000933691
0.0130977
0.0011163
0.0127579
0.00132665
0.0123587
0.0015704
0.00184612
0.0145088
-0.000234351
0.0145256
-0.000214888
0.0145354
-0.000179962
0.0145366
-0.000135348
0.0145282
-8.40308e-05
0.0145106
-2.90473e-05
0.0144685
4.21545e-05
0.0144141
0.00012819
0.0143432
0.000217675
0.0142539
0.000314601
0.0141443
0.000421249
0.0140119
0.000539867
0.013854
0.000672955
0.0136672
0.000823401
0.0134476
0.000994598
0.0131907
0.00119061
0.0128908
0.00141618
0.012542
0.00167551
0.0121368
0.00197556
0.00232246
0.0145776
-0.000233776
0.0145727
-0.000210003
0.0145608
-0.000168024
0.0145398
-0.000114413
0.0145089
-5.31507e-05
0.0144674
1.25257e-05
0.0144002
0.000109305
0.0143219
0.000206534
0.0142282
0.000311347
0.014117
0.00042576
0.0139862
0.000552042
0.0138334
0.000692709
0.0136558
0.000850601
0.0134501
0.00102902
0.0132129
0.00123184
0.0129398
0.00146366
0.012626
0.00173002
0.0122661
0.00203542
0.0118551
0.00238659
0.0028037
0.0146477
-0.000206203
0.0146153
-0.000177555
0.014576
-0.000128703
0.0145292
-6.76026e-05
0.0144802
-4.15589e-06
0.0143955
9.72226e-05
0.0143048
0.000200024
0.0142006
0.000310667
0.0140811
0.00043083
0.0139445
0.00056242
0.0137887
0.000707852
0.0136115
0.00086986
0.0134106
0.00105156
0.013183
0.00125658
0.0129257
0.00148913
0.0126352
0.00175419
0.0123073
0.00205796
0.0119372
0.00240547
0.0115223
0.00280147
0.00328575
0.0147382
-0.000147036
0.014675
-0.00011433
0.0146063
-5.99494e-05
0.0145354
3.23088e-06
0.0144274
0.00010386
0.0143173
0.000207388
0.0141961
0.000321128
0.0140619
0.000444901
0.013913
0.000579792
0.0137475