/*--------------------------------*- C++ -*----------------------------------*\
| =========                 |                                                 |
| \\      /  F ield         | OpenFOAM: The Open Source CFD Toolbox           |
|  \\    /   O peration     | Version:  4.1                                   |
|   \\  /    A nd           | Web:      www.OpenFOAM.org                      |
|    \\/     M anipulation  |                                                 |
\*---------------------------------------------------------------------------*/
FoamFile
{
    version     2.0;
    format      ascii;
    class       volScalarField;
    location    "7.9";
    object      p;
}
// * * * * * * * * * * * * * * * * * * * * * * * * * * * * * * * * * * * * * //

dimensions      [0 2 -2 0 0 0 0];

internalField   nonuniform List<scalar> 
2000
(
-0.420393
-0.409004
-0.397973
-0.387871
-0.379159
-0.371145
-0.362436
-0.353301
-0.340652
-0.330687
-0.443372
-0.428048
-0.414339
-0.401636
-0.389496
-0.376914
-0.363106
-0.347986
-0.330861
-0.31498
-0.471855
-0.45174
-0.434834
-0.418534
-0.401195
-0.38227
-0.361911
-0.340808
-0.319032
-0.298111
-0.505995
-0.480183
-0.459346
-0.437618
-0.412735
-0.38571
-0.358096
-0.331077
-0.304842
-0.281401
-0.545286
-0.512779
-0.486779
-0.456855
-0.421966
-0.385629
-0.350525
-0.3178
-0.287819
-0.2613
-0.587721
-0.548034
-0.514442
-0.473107
-0.426372
-0.38029
-0.337922
-0.300011
-0.26642
-0.237026
-0.629702
-0.583242
-0.538278
-0.482722
-0.42345
-0.368016
-0.31902
-0.276421
-0.239519
-0.207191
-0.666211
-0.613909
-0.553858
-0.482412
-0.411034
-0.347255
-0.292517
-0.24589
-0.205927
-0.170873
-0.691983
-0.634213
-0.557011
-0.469589
-0.387367
-0.316591
-0.257194
-0.207325
-0.164838
-0.127655
-0.702449
-0.638674
-0.543967
-0.442233
-0.351085
-0.274853
-0.211968
-0.159772
-0.115551
-0.0772424
-0.318224
-0.324869
-0.328172
-0.331206
-0.334373
-0.337359
-0.339894
-0.341782
-0.342997
-0.343793
-0.322008
-0.328079
-0.331167
-0.334149
-0.337322
-0.34034
-0.342911
-0.344773
-0.345815
-0.346632
-0.328925
-0.333854
-0.336514
-0.339285
-0.342333
-0.345276
-0.347786
-0.349536
-0.350175
-0.350486
-0.337812
-0.341216
-0.343139
-0.345397
-0.348039
-0.350646
-0.352852
-0.354359
-0.354445
-0.351975
-0.347516
-0.34921
-0.350026
-0.351358
-0.353202
-0.355151
-0.356787
-0.357702
-0.357115
-0.353475
-0.357258
-0.357215
-0.356527
-0.356489
-0.357124
-0.358124
-0.358963
-0.359156
-0.358386
-0.35133
-0.366866
-0.36503
-0.362626
-0.36078
-0.359848
-0.359661
-0.359583
-0.358786
-0.358917
-0.347541
-0.376843
-0.373158
-0.368782
-0.364905
-0.362217
-0.360672
-0.359682
-0.357585
-0.358493
-0.344887
-0.388233
-0.382476
-0.375994
-0.370056
-0.365593
-0.362562
-0.360164
-0.356845
-0.356161
-0.344263
-0.402334
-0.394081
-0.385406
-0.377444
-0.371097
-0.36609
-0.361154
-0.35597
-0.350269
-0.341737
-0.344316
-0.343618
-0.341858
-0.338837
-0.334328
-0.328103
-0.319926
-0.309568
-0.296873
-0.2819
-0.264433
-0.244372
-0.221678
-0.196364
-0.168508
-0.138385
-0.106502
-0.0728604
-0.0365133
-0.00196614
-0.348264
-0.347789
-0.346242
-0.343494
-0.33928
-0.33336
-0.325487
-0.315455
-0.303151
-0.288435
-0.271195
-0.251328
-0.228791
-0.203601
-0.175825
-0.145641
-0.113433
-0.0793729
-0.0427019
-0.00461567
-0.354523
-0.354161
-0.35297
-0.350722
-0.347031
-0.341625
-0.334225
-0.324626
-0.313018
-0.298825
-0.281986
-0.262418
-0.240079
-0.214983
-0.187199
-0.156847
-0.124126
-0.0887575
-0.0513012
-0.0101035
-0.362222
-0.35987
-0.359441
-0.357798
-0.354746
-0.349956
-0.343108
-0.334625
-0.323422
-0.309693
-0.293252
-0.273964
-0.251758
-0.226622
-0.198594
-0.167743
-0.134155
-0.0977737
-0.058808
-0.0163618
-0.363327
-0.364789
-0.364116
-0.362824
-0.36048
-0.356526
-0.350805
-0.342522
-0.331862
-0.318601
-0.3025
-0.283405
-0.26122
-0.235912
-0.207493
-0.176002
-0.141551
-0.104009
-0.0639817
-0.0197818
-0.363835
-0.367446
-0.366531
-0.365132
-0.363332
-0.360088
-0.354687
-0.347004
-0.336831
-0.323918
-0.30804
-0.289035
-0.266788
-0.241259
-0.212452
-0.180402
-0.145279
-0.106916
-0.0661285
-0.0213385
-0.361799
-0.367653
-0.36674
-0.364878
-0.363078
-0.360133
-0.355087
-0.34765
-0.337647
-0.324848
-0.309008
-0.289969
-0.267598
-0.241884
-0.212819
-0.180503
-0.145103
-0.106631
-0.0657554
-0.021764
-0.358269
-0.364928
-0.363333
-0.360899
-0.359081
-0.356129
-0.351041
-0.343589
-0.33356
-0.320711
-0.304792
-0.285693
-0.263268
-0.237576
-0.208564
-0.176491
-0.14139
-0.103668
-0.0635385
-0.0214634
-0.355586
-0.359348
-0.356243
-0.353299
-0.350852
-0.347316
-0.341961
-0.334441
-0.324375
-0.31152
-0.295645
-0.276707
-0.254531
-0.229277
-0.200817
-0.16961
-0.135488
-0.0992821
-0.0606218
-0.0209516
-0.350543
-0.350616
-0.346658
-0.342456
-0.338258
-0.333516
-0.327573
-0.319789
-0.309636
-0.296891
-0.281312
-0.262893
-0.241415
-0.217114
-0.18979
-0.160069
-0.127621
-0.0936092
-0.057224
-0.0204073
-0.328578
-0.334084
-0.332263
-0.32734
-0.321946
-0.316454
-0.310038
-0.301846
-0.291335
-0.278364
-0.262779
-0.24464
-0.223781
-0.200466
-0.174519
-0.146595
-0.116346
-0.0850122
-0.0516445
-0.0184932
-0.305742
-0.316023
-0.31503
-0.308462
-0.301347
-0.294873
-0.288022
-0.279625
-0.269031
-0.256148
-0.240918
-0.22347
-0.203664
-0.181779
-0.15763
-0.131876
-0.104142
-0.0756855
-0.0455271
-0.0161075
-0.280725
-0.294215
-0.293956
-0.2868
-0.279005
-0.272245
-0.265455
-0.257294
-0.247037
-0.234634
-0.220101
-0.203626
-0.185094
-0.16479
-0.142524
-0.118945
-0.0936698
-0.0679427
-0.0408109
-0.0146167
-0.255329
-0.270165
-0.271039
-0.264512
-0.256968
-0.250386
-0.243873
-0.236116
-0.226377
-0.214622
-0.200912
-0.185478
-0.168233
-0.149467
-0.128991
-0.10744
-0.0844318
-0.0611642
-0.0366828
-0.0131684
-0.230088
-0.245396
-0.247697
-0.242474
-0.235704
-0.229557
-0.22343
-0.216162
-0.207041
-0.196036
-0.183222
-0.16886
-0.152885
-0.135598
-0.116815
-0.097149
-0.0762197
-0.0551637
-0.0330378
-0.0118951
-0.205555
-0.221067
-0.224763
-0.221044
-0.215299
-0.20977
-0.204137
-0.197435
-0.18901
-0.178825
-0.166953
-0.153672
-0.138939
-0.123064
-0.105867
-0.0879422
-0.0689064
-0.0498412
-0.0298207
-0.0107788
-0.182428
-0.197853
-0.202688
-0.200431
-0.195822
-0.191046
-0.186006
-0.179933
-0.172248
-0.162917
-0.152002
-0.13979
-0.126254
-0.111713
-0.0959912
-0.0796666
-0.0623526
-0.0450847
-0.0269507
-0.0097848
-0.160973
-0.176003
-0.1817
-0.180792
-0.177348
-0.173408
-0.169031
-0.163627
-0.156699
-0.148224
-0.138257
-0.127085
-0.114691
-0.101404
-0.0870508
-0.0721961
-0.0564493
-0.0408094
-0.0243726
-0.00889649
-0.141152
-0.155612
-0.161957
-0.162265
-0.15996
-0.156888
-0.153209
-0.148488
-0.142313
-0.134679
-0.125634
-0.115462
-0.104151
-0.0920365
-0.0789477
-0.0654412
-0.0511206
-0.0369567
-0.0220504
-0.00810117
-0.12294
-0.136763
-0.143592
-0.144975
-0.143745
-0.141531
-0.138553
-0.134509
-0.129067
-0.122245
-0.114082
-0.104859
-0.0945637
-0.0835388
-0.0716136
-0.0593392
-0.0463133
-0.0334858
-0.019959
-0.00738862
-0.106376
-0.119529
-0.126706
-0.129022
-0.128779
-0.127384
-0.125088
-0.121699
-0.116957
-0.110903
-0.103572
-0.0952368
-0.0858855
-0.075864
-0.0650018
-0.053847
-0.0419909
-0.0303685
-0.0180808
-0.00675163
-0.0914914
-0.103955
-0.111365
-0.114482
-0.115131
-0.114498
-0.112848
-0.110076
-0.10599
-0.100652
-0.0940906
-0.0865752
-0.0780889
-0.0689817
-0.0590817
-0.0489359
-0.0381291
-0.0275859
-0.0164045
-0.00618527
-0.0782862
-0.0900651
-0.0976177
-0.101417
-0.102859
-0.102922
-0.101866
-0.0996636
-0.0961788
-0.0914951
-0.0856355
-0.078864
-0.0711593
-0.0628739
-0.0538344
-0.0445875
-0.0347122
-0.0251258
-0.0149226
-0.00568616
-0.0667475
-0.077875
-0.0855055
-0.0898789
-0.092015
-0.0926985
-0.0921781
-0.0904878
-0.087542
-0.0834434
-0.0782102
-0.0721012
-0.0650897
-0.0575307
-0.0492486
-0.0407907
-0.0317305
-0.0229802
-0.0136303
-0.00525205
-0.0568656
-0.0673984
-0.0750615
-0.0799106
-0.082642
-0.0838657
-0.0838142
-0.0825723
-0.0800975
-0.0765092
-0.0718219
-0.066289
-0.0598788
-0.0529479
-0.0453186
-0.0375392
-0.0291782
-0.0211445
-0.0125247
-0.00488148
-0.0486325
-0.0586449
-0.066312
-0.0715466
-0.0747745
-0.0764544
-0.0768005
-0.0759385
-0.0738622
-0.0707054
-0.0664791
-0.0614321
-0.055528
-0.0491244
-0.042042
-0.0348298
-0.0270522
-0.0196161
-0.0116043
-0.00457355
-0.0420413
-0.0516234
-0.0592805
-0.0648175
-0.0684432
-0.0704916
-0.0711597
-0.0706054
-0.0688518
-0.0660441
-0.0621907
-0.0575364
-0.0520405
-0.0460614
-0.0394184
-0.0326613
-0.0253513
-0.0183936
-0.0108681
-0.0043277
-0.0370828
-0.0463417
-0.0539898
-0.0597533
-0.0636782
-0.0660039
-0.0669143
-0.066592
-0.0650818
-0.0625379
-0.0589664
-0.0546085
-0.0494207
-0.0437614
-0.0374492
-0.0310341
-0.0240755
-0.017477
-0.0103165
-0.00414351
-0.0337139
-0.0427751
-0.0504338
-0.05636
-0.0604906
-0.0630038
-0.0640768
-0.0639094
-0.0625623
-0.0601952
-0.0568129
-0.0526535
-0.0476721
-0.0422262
-0.0361357
-0.029948
-0.0232256
-0.0168648
-0.00995164
-0.00401823
-0.0319135
-0.0409017
-0.0485963
-0.0546256
-0.058873
-0.0614876
-0.0626467
-0.0625588
-0.0612961
-0.059018
-0.0557334
-0.0516722
-0.0467978
-0.0414551
-0.0354814
-0.0294001
-0.0228063
-0.01655
-0.00978008
-0.00394041
-0.0460768
-0.096185
-0.140028
-0.177685
-0.209385
-0.235729
-0.257739
-0.27682
-0.292923
-0.317132
-0.0199377
-0.0684115
-0.110987
-0.148158
-0.179852
-0.207378
-0.229855
-0.251733
-0.26726
-0.291272
0.00357912
-0.0427252
-0.0833599
-0.119455
-0.15023
-0.178244
-0.20046
-0.22345
-0.238746
-0.26115
0.0246261
-0.0195957
-0.0584599
-0.0935918
-0.123455
-0.151429
-0.173351
-0.196127
-0.212345
-0.234024
0.0434193
0.00100871
-0.0364025
-0.0706633
-0.0998159
-0.127384
-0.14929
-0.1716
-0.188819
-0.209401
0.0601797
0.0193973
-0.0167534
-0.0500874
-0.0786166
-0.105544
-0.127475
-0.149147
-0.16651
-0.185818
0.0751592
0.035888
0.000892021
-0.0314489
-0.0593542
-0.0855002
-0.107218
-0.128081
-0.145116
-0.163539
0.0885777
0.0507123
0.01679
-0.0145502
-0.0418103
-0.0671331
-0.0884525
-0.108587
-0.125293
-0.143043
0.100602
0.0640283
0.0311022
0.000719546
-0.0258931
-0.0504467
-0.0713348
-0.0908896
-0.107266
-0.124272
0.111359
0.0759539
0.0439465
0.0144508
-0.0115377
-0.0354063
-0.0558713
-0.0748888
-0.0908697
-0.107073
0.120941
0.0865843
0.0554177
0.0267303
0.00133135
-0.0219143
-0.0419536
-0.0604282
-0.0760021
-0.0914467
0.129422
0.0959977
0.0655943
0.0376391
0.0127916
-0.00987597
-0.0295028
-0.0474608
-0.0626746
-0.0774398
0.136853
0.104257
0.0745402
0.047245
0.0229039
0.000765215
-0.018488
-0.0359846
-0.0508909
-0.065051
0.143276
0.111412
0.0823056
0.055599
0.0317116
0.010044
-0.00888429
-0.0259786
-0.0406202
-0.0542511
0.148723
0.117501
0.0889297
0.062739
0.0392489
0.0179917
-0.000658644
-0.0174091
-0.0318283
-0.0450155
0.153218
0.122556
0.0944449
0.0686963
0.0455466
0.0246386
0.00622043
-0.0102473
-0.0244916
-0.0373264
0.156775
0.126598
0.098875
0.0734962
0.0506307
0.0300097
0.0117766
-0.00447289
-0.0185931
-0.0311685
0.159405
0.129634
0.102238
0.0771644
0.05453
0.0341334
0.0160372
-6.04057e-05
-0.0141097
-0.0265218
0.161102
0.131657
0.104537
0.0797156
0.0572702
0.037044
0.0190449
0.00304102
-0.0109843
-0.0233286
0.161787
0.132579
0.105651
0.0810142
0.0587129
0.0386117
0.0206855
0.00474404
-0.00926987
-0.0215988
0.701866
0.704453
0.696741
0.679392
0.653414
0.617877
0.568605
0.498606
0.4055
0.337698
0.630182
0.625754
0.60603
0.578461
0.543909
0.499087
0.438404
0.354535
0.245388
0.165084
0.5547
0.541252
0.511669
0.475662
0.432992
0.378868
0.307104
0.210394
0.086686
-0.00358115
0.468676
0.448561
0.413162
0.371389
0.321919
0.259348
0.177631
0.06999
-0.0664862
-0.162551
0.378444
0.353098
0.313716
0.267636
0.212572
0.142804
0.0525667
-0.0633648
-0.209983
-0.304986
0.289614
0.259491
0.216885
0.167305
0.107682
0.032125
-0.0651385
-0.18782
-0.334485
-0.428632
0.204596
0.170233
0.125213
0.0730364
0.0100526
-0.0695717
-0.171313
-0.297348
-0.439328
-0.530818
0.12463
0.0868817
0.0405035
-0.0131625
-0.0780746
-0.159968
-0.263161
-0.388604
-0.523423
-0.609406
0.0504723
0.0106232
-0.0356347
-0.0897263
-0.155611
-0.237521
-0.33927
-0.460403
-0.584934
-0.663558
-0.0185148
-0.0571959
-0.102532
-0.156158
-0.221285
-0.301275
-0.39899
-0.512163
-0.623076
-0.693929
1.1542
1.17412
1.19688
1.22254
1.25105
1.2821
1.31479
1.34657
1.37403
1.40411
1.14806
1.16674
1.18855
1.21322
1.24049
1.27001
1.30082
1.33028
1.35493
1.38287
1.13545
1.15171
1.17166
1.19437
1.2192
1.24567
1.27273
1.29756
1.31682
1.34025
1.11584
1.12855
1.14579
1.16564
1.18689
1.2089
1.23045
1.24846
1.25981
1.27659
1.08851
1.09668
1.11049
1.12668
1.14331
1.15955
1.17396
1.18311
1.18413
1.19235
1.05272
1.05541
1.06513
1.07698
1.08812
1.09746
1.10332
1.10182
1.09031
1.08835
1.00801
1.00457
1.00981
1.01676
1.02156
1.02293
1.01898
1.00528
0.979291
0.965858
0.952638
0.94254
0.943647
0.945772
0.943814
0.936495
0.921792
0.89473
0.852731
0.82666
0.886996
0.870593
0.868335
0.865101
0.855527
0.838887
0.812877
0.771772
0.712909
0.673127
0.80303
0.78846
0.785766
0.776639
0.758646
0.732196
0.69442
0.638802
0.562678
0.508704
1.00128
1.00378
1.00692
1.0106
1.01446
1.01844
1.02263
1.02714
1.03205
1.03744
1.0434
1.04995
1.05718
1.06519
1.07412
1.08407
1.09519
1.1076
1.12146
1.1369
1.00124
1.00373
1.00682
1.01039
1.01414
1.018
1.02208
1.02647
1.03125
1.0365
1.04227
1.04862
1.05562
1.06338
1.072
1.0816
1.09229
1.10419
1.11743
1.13208
1.00122
1.00363
1.00655
1.0099
1.01343
1.01708
1.02093
1.02508
1.0296
1.03455
1.03996
1.04589
1.05243
1.05966
1.06765
1.07652
1.08633
1.09718
1.10912
1.12213
1.00116
1.00342
1.00606
1.00909
1.01229
1.01562
1.01912
1.02289
1.02699
1.03148
1.03633
1.04163
1.04745
1.05384
1.06086
1.06857
1.077
1.08618
1.09608
1.10649
1.00106
1.00308
1.00535
1.00794
1.01069
1.01356
1.01659
1.01984
1.02337
1.02717
1.03125
1.03567
1.04048
1.04571
1.05136
1.05742
1.0639
1.0707
1.07771
1.08441
1.00089
1.00258
1.00438
1.00639
1.00856
1.01084
1.01325
1.01582
1.01862
1.02149
1.02455
1.02783
1.03134
1.03502
1.03885
1.04274
1.04662
1.05024
1.05341
1.05514
1.00063
1.00188
1.00308
1.0044
1.00586
1.00742
1.00906
1.01083
1.01255
1.0143
1.01614
1.01801
1.01986
1.02158
1.0231
1.02418
1.02471
1.02418
1.02247
1.01792
1.00027
1.0009
1.00141
1.00192
1.00256
1.00327
1.004
1.0046
1.00515
1.00563
1.006
1.00614
1.00599
1.00532
1.00402
1.00167
0.998156
0.992461
0.984703
0.971915
0.999818
0.999612
0.99929
0.998927
0.998596
0.998256
0.997823
0.997228
0.996448
0.995409
0.994031
0.992133
0.989603
0.986085
0.98149
0.975053
0.966942
0.955217
0.940991
0.917856
0.999428
0.99811
0.99678
0.995492
0.994145
0.992657
0.990968
0.988997
0.986681
0.983884
0.980505
0.976255
0.971011
0.964145
0.955633
0.943947
0.929679
0.908729
0.884567
0.845309
0.998857
0.996625
0.994427
0.99216
0.989703
0.986966
0.983896
0.980396
0.976374
0.971634
0.96604
0.959214
0.950986
0.940577
0.927877
0.911123
0.89055
0.861476
0.824621
0.765568
0.998416
0.995229
0.992097
0.988833
0.985268
0.98131
0.97692
0.971985
0.966399
0.959925
0.952415
0.943439
0.932835
0.919759
0.904114
0.884154
0.860031
0.828218
0.789893
0.740568
0.997981
0.993845
0.98978
0.9855
0.980803
0.975618
0.96992
0.963588
0.956503
0.948402
0.939137
0.928262
0.91563
0.900422
0.882568
0.860568
0.834687
0.8025
0.765305
0.719716
0.997445
0.9925
0.987597
0.982272
0.976384
0.969932
0.962916
0.9552
0.946653
0.936995
0.926082
0.913472
0.899041
0.882027
0.862423
0.838939
0.812
0.779545
0.74302
0.698899
0.996915
0.991228
0.985577
0.979205
0.972081
0.964329
0.955992
0.946922
0.936968
0.925841
0.913404
0.899233
0.883236
0.864709
0.843722
0.819114
0.791444
0.758767
0.72278
0.680082
0.996389
0.99001
0.983716
0.976338
0.967959
0.958886
0.949238
0.938857
0.927569
0.915074
0.901248
0.885688
0.868343
0.84856
0.826478
0.801028
0.772862
0.740177
0.704797
0.663573
0.995836
0.988843
0.982052
0.973732
0.964092
0.953682
0.942737
0.931096
0.918555
0.904797
0.889712
0.872925
0.85442
0.833599
0.810644
0.784585
0.756114
0.72361
0.688854
0.648989
0.995259
0.987752
0.980638
0.971452
0.960543
0.948779
0.936553
0.92371
0.910002
0.895088
0.878868
0.861001
0.841499
0.819822
0.796175
0.769691
0.741056
0.708838
0.674678
0.63604
0.994659
0.986753
0.979512
0.969544
0.957357
0.94422
0.930736
0.916756
0.90197
0.886007
0.868768
0.849955
0.829599
0.80722
0.783025
0.756256
0.727553
0.695676
0.66208
0.624568
0.994042
0.985864
0.978707
0.968036
0.954553
0.940025
0.925315
0.910275
0.894506
0.877598
0.859452
0.839813
0.818727
0.795775
0.771151
0.7442
0.715496
0.683986
0.650927
0.614452
0.993417
0.985128
0.978264
0.966934
0.952111
0.936183
0.920302
0.904293
0.887642
0.86989
0.850941
0.830588
0.808884
0.785469
0.760508
0.733453
0.704795
0.673663
0.641109
0.605585
0.992805
0.984634
0.978236
0.966205
0.949966
0.932654
0.915695
0.898829
0.881396
0.862899
0.843248
0.822286
0.800064
0.776276
0.751057
0.723954
0.695373
0.664617
0.632532
0.597871
0.992218
0.984501
0.97863
0.965719
0.947975
0.929366
0.911485
0.893891
0.875776
0.856629
0.836378
0.814908
0.792258
0.768175
0.742759
0.71565
0.687167
0.65677
0.625115
0.591227
0.991654
0.984731
0.979196
0.965121
0.945901
0.926244
0.907663
0.889472
0.870769
0.851076
0.830333
0.808452
0.785456
0.761143
0.735581
0.708494
0.68012
0.650057
0.618788
0.585582
0.991324
0.985025
0.979193
0.9638
0.943519
0.923305
0.904269
0.885568
0.866362
0.846238
0.82512
0.802921
0.779651
0.755161
0.729495
0.702449
0.674184
0.644423
0.613494
0.580878
0.99025
0.982993
0.976149
0.960373
0.94056
0.920644
0.901343
0.882148
0.862526
0.84211
0.82074
0.798311
0.77483
0.750211
0.724473
0.697479
0.669319
0.639821
0.609181
0.577062
0.991265
0.97783
0.967316
0.953655
0.937023
0.918462
0.898992
0.879289
0.859341
0.838755
0.817228
0.794635
0.770997
0.746284
0.720501
0.693558
0.665492
0.636212
0.605811
0.57409
0.994551
0.971915
0.953959
0.944641
0.933306
0.916629
0.897128
0.877084
0.856944
0.83625
0.814605
0.79189
0.76814
0.743365
0.717554
0.690655
0.662666
0.633558
0.603349
0.571936
0.998019
0.978372
0.958446
0.945155
0.931655
0.914706
0.895433
0.87556
0.855416
0.834615
0.812844
0.790034
0.766218
0.741412
0.715589
0.688726
0.660794
0.631813
0.601751
0.570576
0.988846
0.985277
0.980535
0.961702
0.937536
0.914913
0.894646
0.87507
0.854999
0.834021
0.812071
0.789161
0.765293
0.740462
0.714627
0.687776
0.65987
0.630953
0.600979
0.569973
0.69486
0.619577
0.546739
0.467499
0.38332
0.300379
0.221181
0.145974
0.0753171
0.0108588
0.68556
0.607762
0.531608
0.457326
0.379543
0.301945
0.228115
0.158272
0.0931721
0.0340921
0.669555
0.595517
0.519214
0.44909
0.378084
0.305961
0.236708
0.1715
0.110856
0.0548937
0.652535
0.584115
0.509681
0.442057
0.376422
0.309542
0.244444
0.183076
0.126056
0.0732066
0.636536
0.573249
0.501935
0.436432
0.37496
0.31293
0.251761
0.193677
0.139757
0.0895927
0.621948
0.563004
0.495417
0.432162
0.373878
0.316012
0.258517
0.203373
0.152085
0.104261
0.608774
0.553505
0.489765
0.428964
0.373245
0.318819
0.264666
0.212217
0.163202
0.117413
0.596973
0.544852
0.484808
0.426576
0.373054
0.321428
0.270213
0.220239
0.173235
0.12923
0.586481
0.537071
0.480443
0.424778
0.373227
0.323888
0.275191
0.227464
0.18227
0.139845
0.577215
0.530137
0.476599
0.423405
0.373665
0.326223
0.279648
0.233925
0.190368
0.149356
0.569085
0.524009
0.47322
0.422337
0.37427
0.328426
0.283624
0.239655
0.197575
0.157834
0.562008
0.518637
0.470257
0.421488
0.374956
0.330475
0.287147
0.244691
0.20393
0.16533
0.555908
0.513971
0.467669
0.42079
0.375648
0.332337
0.290232
0.249061
0.209462
0.171885
0.550719
0.509964
0.46542
0.420191
0.376284
0.333975
0.292881
0.252788
0.214199
0.177529
0.546385
0.506576
0.463482
0.419652
0.376811
0.33535
0.295084
0.255884
0.218162
0.182287
0.542856
0.503774
0.461832
0.419143
0.37719
0.336425
0.296826
0.258354
0.221359
0.186178
0.540089
0.501521
0.460446
0.418641
0.377388
0.337176
0.298101
0.260206
0.223796
0.189189
0.538051
0.499782
0.459284
0.418096
0.377353
0.337559
0.298891
0.261452
0.225515
0.191358
0.536742
0.498571
0.458337
0.417453
0.37699
0.337465
0.299097
0.262015
0.226482
0.192758
0.536215
0.498055
0.457832
0.416931
0.376462
0.336989
0.298744
0.261856
0.226549
0.193079
)
;

boundaryField
{
    bottom
    {
        type            symmetryPlane;
    }
    right
    {
        type            fixedValue;
        value           uniform 0;
    }
    top
    {
        type            symmetryPlane;
    }
    left
    {
        type            fixedValue;
        value           uniform 1;
    }
    cylinder
    {
        type            zeroGradient;
    }
    defaultFaces
    {
        type            empty;
    }
}


// ************************************************************************* //
