/*--------------------------------*- C++ -*----------------------------------*\
| =========                 |                                                 |
| \\      /  F ield         | OpenFOAM: The Open Source CFD Toolbox           |
|  \\    /   O peration     | Version:  4.1                                   |
|   \\  /    A nd           | Web:      www.OpenFOAM.org                      |
|    \\/     M anipulation  |                                                 |
\*---------------------------------------------------------------------------*/
FoamFile
{
    version     2.0;
    format      ascii;
    class       volVectorField;
    location    "7.5";
    object      U;
}
// * * * * * * * * * * * * * * * * * * * * * * * * * * * * * * * * * * * * * //

dimensions      [0 1 -1 0 0 0 0];

internalField   nonuniform List<vector> 
2000
(
(-0.0399999 0.034425 5.46787e-20)
(-0.0105857 0.0372747 0)
(0.114069 0.0179845 8.82185e-20)
(0.317319 -0.00857885 3.96811e-20)
(0.574687 -0.0324946 -7.39306e-20)
(0.850958 -0.0500932 -1.00074e-19)
(1.11381 -0.0599176 3.16382e-20)
(1.3365 -0.0691106 0)
(1.52665 -0.0665035 -2.53987e-20)
(1.63714 -0.082666 0)
(-0.0342979 0.0266382 -2.71056e-20)
(0.0381148 0.0135825 2.42109e-20)
(0.232884 -0.0115377 -9.28433e-20)
(0.51491 -0.0342061 -1.24526e-19)
(0.832236 -0.0473954 -9.49895e-22)
(1.13238 -0.051807 3.29479e-20)
(1.3816 -0.0508937 -3.13109e-20)
(1.56933 -0.0500088 -2.75145e-20)
(1.69848 -0.0455665 2.5398e-20)
(1.76503 -0.0561532 4.34542e-20)
(-0.0209603 0.0167329 2.91181e-20)
(0.113534 -0.0114417 -2.72737e-20)
(0.3951 -0.0351795 4.66885e-20)
(0.75175 -0.045371 -1.68207e-21)
(1.09977 -0.0432857 3.79296e-20)
(1.38441 -0.0354526 3.41735e-20)
(1.58887 -0.0273768 3.07059e-20)
(1.72008 -0.0232512 2.75143e-20)
(1.79561 -0.0201274 2.35442e-20)
(1.83905 -0.0287114 -2.07852e-20)
(0.00273617 0.00507956 -7.49353e-22)
(0.220454 -0.034169 -2.89964e-20)
(0.595785 -0.0462285 0)
(1.00226 -0.0378109 4.16186e-20)
(1.34109 -0.021572 -4.05561e-20)
(1.57892 -0.00669018 0)
(1.72521 0.00271723 0)
(1.80527 0.00576451 0)
(1.84691 0.0063347 -2.35456e-20)
(1.862 -0.00248558 3.99152e-20)
(0.0395364 -0.00711425 6.82742e-20)
(0.360125 -0.0486213 4.78737e-23)
(0.81842 -0.0390952 2.71701e-20)
(1.23622 -0.0119885 2.19486e-20)
(1.53309 0.0127141 2.01069e-20)
(1.71173 0.0285505 1.70687e-20)
(1.80563 0.0354041 0)
(1.84977 0.0357087 1.22951e-20)
(1.86818 0.0327866 -5.19506e-20)
(1.87772 0.0233228 6.78975e-20)
(0.0916403 -0.0175509 -1.06966e-19)
(0.527275 -0.0478946 2.05735e-21)
(1.0393 -0.0121534 -5.39407e-20)
(1.43237 0.0282767 4.84544e-20)
(1.67151 0.0548082 -5.8335e-20)
(1.79441 0.0672845 1.88203e-20)
(1.84856 0.0697762 0)
(1.8691 0.0663974 -1.22962e-20)
(1.87732 0.060146 1.04712e-20)
(1.88166 0.0508123 3.1278e-20)
(0.159748 -0.0229929 0)
(0.708995 -0.0271388 0)
(1.23776 0.0324516 -2.75605e-20)
(1.58322 0.0788059 2.56565e-20)
(1.76318 0.101856 -1.87149e-20)
(1.84035 0.10839 1.75709e-20)
(1.86685 0.105556 2.50947e-20)
(1.87412 0.0982039 -2.37206e-20)
(1.87664 0.0889027 -1.70195e-20)
(1.88016 0.0789429 8.14957e-21)
(0.242148 -0.0199397 2.08184e-20)
(0.888273 0.0144481 0)
(1.40219 0.091089 -1.29969e-20)
(1.69036 0.136368 4.84269e-20)
(1.8173 0.152151 -3.04194e-20)
(1.85999 0.151269 0)
(1.86887 0.14275 0)
(1.86887 0.13126 0)
(1.86955 0.119033 -1.45168e-20)
(1.8727 0.108224 1.37992e-20)
(0.3343 -0.00555969 -1.06469e-20)
(1.04998 0.074136 -3.82209e-22)
(1.52844 0.159978 -1.48843e-20)
(1.75889 0.19853 5.71003e-21)
(1.84205 0.204524 5.43101e-21)
(1.86041 0.195508 7.8233e-21)
(1.85876 0.181131 0)
(1.85554 0.165419 -1.87802e-21)
(1.85567 0.150376 -7.1489e-21)
(1.859 0.137747 5.47485e-21)
(0.429472 0.0216042 0)
(1.18441 0.147592 -9.14415e-21)
(1.61666 0.235543 0)
(1.7944 0.263348 -3.2125e-21)
(1.84359 0.258013 -2.97064e-21)
(1.84581 0.240542 -3.49562e-21)
(1.83854 0.220208 0)
(1.83432 0.200151 1.87821e-21)
(1.83496 0.182168 1.3889e-21)
(1.83893 0.167102 6.51069e-22)
(-0.0101014 0.00956868 0)
(-0.0396778 0.0173704 -4.95871e-21)
(-0.0808832 0.0198298 0)
(-0.120125 0.0199856 -6.50784e-21)
(-0.154908 0.0191056 -2.0598e-21)
(-0.185089 0.01779 3.85452e-21)
(-0.210837 0.0163606 -3.63001e-21)
(-0.23253 0.0150202 3.46282e-21)
(-0.250829 0.0139574 1.57433e-23)
(-0.266992 0.0133871 3.10285e-21)
(-0.0116889 0.0274403 -1.57142e-20)
(-0.040382 0.0501571 9.82325e-21)
(-0.0780178 0.0575084 -9.30572e-21)
(-0.112737 0.0580013 4.31495e-21)
(-0.142388 0.0553035 2.04876e-20)
(-0.166792 0.0511822 -7.69477e-21)
(-0.186043 0.0465993 0)
(-0.200368 0.0422034 -3.45117e-21)
(-0.210103 0.0385987 -3.27186e-21)
(-0.216851 0.0364861 0)
(-0.0145865 0.041791 1.04815e-20)
(-0.0418746 0.0774484 0)
(-0.0731091 0.0894627 2.81208e-20)
(-0.0995962 0.0903291 -3.51637e-20)
(-0.119839 0.0857143 8.27714e-21)
(-0.13371 0.0784155 0)
(-0.14125 0.069967 0)
(-0.142575 0.0614856 0)
(-0.137423 0.0540712 2.6584e-20)
(-0.12679 0.0491077 -2.5265e-20)
(-0.0182886 0.0512582 0)
(-0.0442162 0.0967291 -2.05583e-20)
(-0.0674104 0.112677 3.81921e-20)
(-0.0831078 0.113818 -1.7826e-20)
(-0.0907956 0.107221 1.68752e-20)
(-0.0905743 0.0964725 -4.76968e-20)
(-0.0825059 0.0834714 -9.97224e-23)
(-0.0668839 0.0695508 2.84615e-20)
(-0.0434617 0.0563692 2.68446e-20)
(-0.00872987 0.0478178 -3.82433e-20)
(-0.0223107 0.0556847 2.2032e-20)
(-0.0473496 0.106893 -4.20902e-20)
(-0.0619507 0.125271 -1.38049e-22)
(-0.0652615 0.126165 1.53799e-22)
(-0.0579474 0.117421 1.70452e-20)
(-0.0404853 0.103159 -4.82606e-20)
(-0.0130506 0.0854446 0)
(0.0239675 0.0655203 -1.44182e-20)
(0.0704525 0.0453068 1.36179e-20)
(0.135097 0.0307392 -5.15931e-20)
(-0.0263751 0.0559348 -2.86257e-22)
(-0.0509469 0.108245 4.25873e-20)
(-0.0568099 0.126721 1.96175e-20)
(-0.0462511 0.126092 1.87504e-20)
(-0.0210658 0.114582 1.7151e-20)
(0.017977 0.0966702 1.61537e-20)
(0.0706102 0.0746112 0)
(0.136483 0.0497621 1.44169e-20)
(0.210604 0.0228424 4.04006e-20)
(0.319929 0.000474723 -1.3342e-20)
(-0.0304683 0.0534454 5.79391e-23)
(-0.0541885 0.102341 2.18975e-20)
(-0.0501946 0.117806 0)
(-0.0229451 0.11362 -3.6781e-20)
(0.0252555 0.0981844 3.47867e-20)
(0.0933246 0.0761777 0)
(0.180422 0.0501873 0)
(0.286822 0.0226901 0)
(0.393469 -0.008418 -2.73256e-20)
(0.563188 -0.0353441 -5.13754e-20)
(-0.0345414 0.049627 -2.39232e-20)
(-0.055445 0.0911367 2.24095e-20)
(-0.0378096 0.100287 4.12444e-20)
(0.0125508 0.0903919 4.68151e-22)
(0.093194 0.0699197 3.51361e-20)
(0.202052 0.0437884 3.27759e-20)
(0.335351 0.014846 3.07121e-20)
(0.492491 -0.0124097 2.87786e-20)
(0.635693 -0.043407 2.73216e-20)
(0.865574 -0.067037 -2.51183e-20)
(-0.0382361 0.0452769 -7.48483e-20)
(-0.0516893 0.0761727 -2.23055e-20)
(-0.0124966 0.0764279 -8.27271e-20)
(0.0724602 0.0594371 -3.80033e-20)
(0.19953 0.0340478 4.2259e-22)
(0.36244 0.00557515 -3.25016e-20)
(0.550658 -0.02263 3.08978e-20)
(0.755083 -0.0466143 -2.87745e-20)
(0.935915 -0.0716428 2.68531e-20)
(1.18809 -0.0847818 -5.05612e-20)
(-0.0405937 0.0404044 5.02976e-20)
(-0.0385352 0.0581986 0)
(0.0349448 0.0483112 4.21247e-20)
(0.170521 0.0247605 -6.19225e-23)
(0.358892 -0.00280033 5.51327e-22)
(0.58282 -0.029042 3.28333e-20)
(0.82117 -0.0502227 -9.27847e-20)
(1.05015 -0.0681901 0)
(1.25568 -0.0801528 -2.68494e-20)
(1.46283 -0.0858545 0)
(-0.28222 0.0131544 0)
(-0.29786 0.0116298 -2.99826e-21)
(-0.311175 0.00979901 5.9873e-21)
(-0.322142 0.00785816 -2.61557e-21)
(-0.330614 0.00580414 0)
(-0.33636 0.00365309 2.80988e-21)
(-0.339179 0.00141177 -2.82381e-21)
(-0.339051 -0.00100613 0)
(-0.335902 -0.00353918 0)
(-0.329498 -0.0061633 3.05158e-22)
(-0.31967 -0.00886376 0)
(-0.306273 -0.0116323 0)
(-0.289175 -0.0144743 0)
(-0.268239 -0.0174138 0)
(-0.243267 -0.0204815 -3.12919e-22)
(-0.213888 -0.0237632 3.14541e-22)
(-0.179998 -0.0273918 0)
(-0.142764 -0.0311814 -5.46827e-23)
(-0.100087 -0.0339184 5.49705e-23)
(-0.0311235 -0.0353027 0)
(-0.224336 0.0357543 0)
(-0.236038 0.0313345 7.68672e-22)
(-0.24525 0.0260255 0)
(-0.252185 0.0203811 1.15161e-20)
(-0.25684 0.014399 -1.11949e-20)
(-0.258971 0.00809203 7.33063e-22)
(-0.258577 0.00146658 -5.52233e-21)
(-0.255518 -0.00560558 1.15426e-20)
(-0.249573 -0.0130039 -9.71418e-21)
(-0.240604 -0.0206649 5.3911e-21)
(-0.228477 -0.0285375 4.39639e-21)
(-0.21308 -0.0365838 -7.88459e-21)
(-0.194332 -0.044803 4.02604e-21)
(-0.172132 -0.0532388 1.98607e-21)
(-0.146414 -0.0618969 -1.56158e-21)
(-0.117075 -0.0709423 3.05232e-22)
(-0.0840205 -0.0807746 2.36707e-22)
(-0.0479172 -0.0914709 2.43188e-22)
(-0.0096593 -0.101068 -2.44367e-22)
(0.051959 -0.10536 7.04226e-24)
(-0.121637 0.0482177 -7.85248e-22)
(-0.125979 0.0412201 -7.7002e-22)
(-0.127792 0.0330046 -7.80873e-22)
(-0.12749 0.0241836 0)
(-0.125353 0.0147979 -1.34717e-20)
(-0.121186 0.0048941 1.05217e-20)
(-0.115063 -0.00575907 0)
(-0.106735 -0.0169917 -1.39842e-21)
(-0.095912 -0.0287054 -6.58796e-22)
(-0.0825255 -0.0408231 8.54687e-21)
(-0.0664911 -0.0532542 -7.28005e-22)
(-0.0477689 -0.0659099 -1.02631e-20)
(-0.0263832 -0.0787169 -5.09808e-22)
(-0.00219401 -0.0916094 -4.29147e-22)
(0.0248776 -0.104616 -3.91323e-22)
(0.0545003 -0.117864 8.13828e-22)
(0.0863336 -0.131613 -7.75172e-22)
(0.119957 -0.146282 -8.39996e-22)
(0.155017 -0.160978 -1.64388e-22)
(0.20639 -0.171565 2.77141e-23)
(0.0111637 0.0455033 -2.45817e-20)
(0.0157704 0.0375894 1.7154e-22)
(0.023412 0.0275657 1.00925e-21)
(0.0328439 0.0163744 2.52079e-20)
(0.0436313 0.00440543 2.32665e-21)
(0.0555096 -0.00852463 7.50605e-22)
(0.0687308 -0.0223821 -2.18347e-20)
(0.0838114 -0.036929 1.28604e-20)
(0.100726 -0.0521182 1.12838e-20)
(0.119524 -0.0678325 -1.08384e-20)
(0.140254 -0.083932 7.17332e-22)
(0.162919 -0.100264 1.12081e-20)
(0.187484 -0.116664 5.05567e-22)
(0.213878 -0.132907 4.37782e-21)
(0.242024 -0.149003 -3.05894e-21)
(0.2717 -0.164988 -2.381e-21)
(0.302376 -0.180811 2.09908e-21)
(0.334312 -0.196725 0)
(0.363862 -0.211877 3.40901e-22)
(0.407973 -0.228131 2.33456e-23)
(0.168394 0.0273798 5.09738e-20)
(0.184779 0.0199696 -2.41226e-20)
(0.200577 0.00909449 2.57851e-20)
(0.218817 -0.00367441 0)
(0.238091 -0.0176382 -1.56158e-21)
(0.25797 -0.0326781 -2.44749e-20)
(0.278838 -0.0485956 -8.00749e-22)
(0.300784 -0.065442 8.62314e-22)
(0.323855 -0.0830904 2.30295e-20)
(0.348052 -0.101344 1.32166e-21)
(0.373357 -0.12 0)
(0.399682 -0.138822 -1.1483e-21)
(0.426954 -0.157589 0)
(0.454992 -0.176022 -9.30327e-22)
(0.483634 -0.193972 0)
(0.512706 -0.211243 0)
(0.541302 -0.227697 5.32782e-22)
(0.570976 -0.243455 -6.38825e-22)
(0.59491 -0.257248 5.655e-22)
(0.632349 -0.27336 -1.55546e-22)
(0.361669 -0.00205806 0)
(0.387544 -0.0094426 -1.62977e-21)
(0.409399 -0.0210002 -5.17325e-20)
(0.43342 -0.0347548 5.01211e-20)
(0.459379 -0.0496231 -1.58928e-21)
(0.485974 -0.065514 0)
(0.512861 -0.0826106 -2.40633e-20)
(0.540162 -0.100807 4.58081e-20)
(0.567946 -0.119877 -2.46515e-20)
(0.596092 -0.139556 -1.35565e-21)
(0.624508 -0.159593 -1.27453e-21)
(0.652948 -0.179643 -1.18134e-21)
(0.681339 -0.199446 0)
(0.709296 -0.218583 6.20346e-21)
(0.736738 -0.236907 -1.4113e-20)
(0.76336 -0.253965 6.116e-21)
(0.788293 -0.269716 -5.53694e-22)
(0.813391 -0.283951 -4.01867e-22)
(0.831815 -0.295548 1.61438e-22)
(0.860192 -0.308204 -1.58002e-22)
(0.605657 -0.0362291 5.13181e-20)
(0.635465 -0.0435997 0)
(0.659566 -0.0563454 -1.6233e-21)
(0.685785 -0.0706615 3.21449e-21)
(0.714306 -0.0857445 3.17092e-21)
(0.743462 -0.102098 1.55246e-21)
(0.772693 -0.119794 1.51458e-21)
(0.801935 -0.138552 -2.16822e-20)
(0.831127 -0.158111 2.59286e-20)
(0.859933 -0.178155 2.35579e-20)
(0.888233 -0.198409 -1.95748e-20)
(0.915503 -0.218411 2.32456e-21)
(0.941842 -0.237925 -8.03638e-21)
(0.966412 -0.256344 1.89934e-21)
(0.989708 -0.273674 8.67767e-21)
(1.01055 -0.289094 6.77041e-22)
(1.02959 -0.303003 -7.92508e-22)
(1.04639 -0.314427 9.94636e-22)
(1.05889 -0.323507 1.49426e-21)
(1.07432 -0.33125 7.55729e-23)
(0.899863 -0.0664356 0)
(0.925388 -0.074664 -5.2469e-20)
(0.946873 -0.0883638 5.38677e-20)
(0.970805 -0.102984 -1.60828e-21)
(0.997034 -0.118424 -3.13682e-21)
(1.02393 -0.135218 -1.55102e-21)
(1.05087 -0.153187 -2.9895e-21)
(1.07743 -0.171952 0)
(1.10341 -0.191274 -1.39559e-21)
(1.1282 -0.210795 -1.32219e-21)
(1.1518 -0.230252 -1.21003e-21)
(1.17328 -0.249091 -2.25726e-21)
(1.19325 -0.267173 0)
(1.21006 -0.283721 0)
(1.22555 -0.299004 -7.93878e-22)
(1.23664 -0.311802 -5.99301e-21)
(1.24733 -0.323177 4.14726e-21)
(1.25218 -0.331124 -3.65597e-22)
(1.25801 -0.337697 -7.4849e-22)
(1.25741 -0.340497 2.15577e-22)
(1.20994 -0.0864671 5.27205e-20)
(1.22728 -0.0970045 0)
(1.24357 -0.111049 0)
(1.26215 -0.125819 -4.99472e-20)
(1.28236 -0.141749 2.32963e-21)
(1.30291 -0.158845 9.59406e-20)
(1.32318 -0.176701 -4.56616e-20)
(1.34239 -0.194973 0)
(1.36035 -0.21347 0)
(1.37625 -0.231802 0)
(1.39046 -0.249748 6.20074e-22)
(1.40167 -0.266731 1.62479e-21)
(1.41128 -0.282725 1.47554e-20)
(1.41673 -0.296882 -1.4234e-20)
(1.42161 -0.309689 5.4449e-21)
(1.42054 -0.319685 -4.78169e-21)
(1.42157 -0.328457 0)
(1.4133 -0.333194 1.84835e-22)
(1.41248 -0.33757 2.13131e-22)
(1.39603 -0.336326 0)
(1.48534 -0.0958339 -8.2501e-22)
(1.50134 -0.108621 -5.12539e-20)
(1.51372 -0.12221 5.07207e-20)
(1.52483 -0.136651 0)
(1.5355 -0.152095 4.70371e-20)
(1.54554 -0.168214 -9.20429e-20)
(1.5547 -0.184796 4.50251e-20)
(1.5622 -0.201663 0)
(1.56819 -0.218647 1.97156e-20)
(1.57182 -0.235346 -3.7945e-20)
(1.57395 -0.251539 1.88089e-20)
(1.57299 -0.26667 -5.18023e-22)
(1.57112 -0.280724 0)
(1.56499 -0.292903 -1.23609e-20)
(1.55965 -0.303705 1.6872e-20)
(1.54788 -0.311739 -4.98813e-21)
(1.54075 -0.318634 -3.06597e-21)
(1.5224 -0.321519 2.17415e-21)
(1.51671 -0.324494 1.01789e-21)
(1.4891 -0.321194 0)
(1.73139 -0.0870052 0)
(1.72796 -0.100802 0)
(1.72189 -0.113147 0)
(1.71565 -0.126389 0)
(1.71078 -0.14084 0)
(1.70694 -0.155952 0)
(1.70358 -0.171315 0)
(1.69952 -0.186657 0)
(1.69489 -0.201907 0)
(1.68858 -0.216798 0)
(1.68171 -0.231259 0)
(1.67232 -0.24482 0)
(1.66302 -0.257547 0)
(1.64992 -0.26873 0)
(1.6387 -0.278848 0)
(1.62128 -0.286695 0)
(1.60977 -0.293606 0)
(1.58685 -0.297265 0)
(1.57841 -0.300732 0)
(1.54669 -0.299318 0)
(1.8072 -0.0773132 0)
(1.80937 -0.0921809 0)
(1.80471 -0.106041 0)
(1.79714 -0.120394 0)
(1.78983 -0.135473 0)
(1.78308 -0.150856 0)
(1.77648 -0.166187 0)
(1.76885 -0.181208 0)
(1.76047 -0.195875 0)
(1.75035 -0.209963 0)
(1.7398 -0.22345 0)
(1.72692 -0.235919 0)
(1.71446 -0.247476 0)
(1.69847 -0.257476 0)
(1.68479 -0.26641 0)
(1.66519 -0.273167 0)
(1.65197 -0.279043 0)
(1.62759 -0.281842 0)
(1.61814 -0.284587 0)
(1.58585 -0.28255 0)
(1.84982 -0.0695567 0)
(1.85277 -0.0852921 0)
(1.84792 -0.100259 0)
(1.83946 -0.114981 0)
(1.83103 -0.129703 0)
(1.82311 -0.144333 0)
(1.81532 -0.158727 0)
(1.8064 -0.172693 0)
(1.79668 -0.186194 0)
(1.78519 -0.19903 0)
(1.77336 -0.211208 0)
(1.7593 -0.22238 0)
(1.74585 -0.232668 0)
(1.72902 -0.241523 0)
(1.71471 -0.249391 0)
(1.69467 -0.255319 0)
(1.68119 -0.26043 0)
(1.65676 -0.26286 0)
(1.64741 -0.265166 0)
(1.61548 -0.263428 0)
(1.87332 -0.0627572 0)
(1.87653 -0.0787748 0)
(1.87199 -0.0940596 0)
(1.86355 -0.108578 0)
(1.85485 -0.122618 0)
(1.84652 -0.136327 0)
(1.8383 -0.14973 0)
(1.82896 -0.162681 0)
(1.81886 -0.175138 0)
(1.80703 -0.18691 0)
(1.79494 -0.198018 0)
(1.78072 -0.208167 0)
(1.76722 -0.217486 0)
(1.7505 -0.225494 0)
(1.73639 -0.232596 0)
(1.71672 -0.237956 0)
(1.70362 -0.242559 0)
(1.67989 -0.2448 0)
(1.6709 -0.246878 0)
(1.64008 -0.245512 0)
(1.88793 -0.0574344 0)
(1.89124 -0.073061 0)
(1.88735 -0.0880141 0)
(1.87948 -0.102013 0)
(1.87101 -0.11531 0)
(1.86269 -0.128141 0)
(1.85443 -0.140612 0)
(1.84511 -0.152619 0)
(1.83508 -0.164117 0)
(1.82337 -0.174927 0)
(1.81149 -0.185077 0)
(1.79755 -0.194311 0)
(1.78443 -0.202766 0)
(1.76818 -0.210015 0)
(1.75461 -0.216433 0)
(1.73562 -0.221278 0)
(1.72313 -0.225433 0)
(1.7003 -0.227491 0)
(1.6918 -0.229382 0)
(1.66224 -0.228267 0)
(1.90077 -0.0533873 0)
(1.90393 -0.0681284 0)
(1.90058 -0.0823524 0)
(1.89332 -0.0956452 0)
(1.88521 -0.108162 0)
(1.87702 -0.12013 0)
(1.86884 -0.131691 0)
(1.85964 -0.142773 0)
(1.84981 -0.153343 0)
(1.83837 -0.163238 0)
(1.82681 -0.17249 0)
(1.81327 -0.180877 0)
(1.8006 -0.188537 0)
(1.78489 -0.195091 0)
(1.7719 -0.20089 0)
(1.7536 -0.205268 0)
(1.74172 -0.209025 0)
(1.71974 -0.210915 0)
(1.71172 -0.212638 0)
(1.6833 -0.211727 0)
(1.915 -0.0500075 0)
(1.91768 -0.0636517 0)
(1.9146 -0.0769625 0)
(1.90781 -0.0894414 0)
(1.9 -0.101143 0)
(1.89193 -0.112252 0)
(1.88381 -0.122919 0)
(1.87469 -0.133101 0)
(1.86503 -0.142782 0)
(1.85381 -0.151813 0)
(1.84254 -0.160232 0)
(1.82933 -0.167838 0)
(1.81706 -0.174772 0)
(1.80181 -0.180691 0)
(1.7893 -0.185928 0)
(1.77157 -0.18988 0)
(1.76022 -0.193278 0)
(1.73894 -0.195 0)
(1.73132 -0.196571 0)
(1.70383 -0.195806 0)
(1.93109 -0.0468998 0)
(1.93306 -0.0594084 0)
(1.93002 -0.0717268 0)
(1.92354 -0.0833225 0)
(1.91596 -0.0941756 0)
(1.90796 -0.104428 0)
(1.89984 -0.114224 0)
(1.89074 -0.123539 0)
(1.88116 -0.132373 0)
(1.87008 -0.140589 0)
(1.85901 -0.148231 0)
(1.84603 -0.155114 0)
(1.83405 -0.161378 0)
(1.81912 -0.166712 0)
(1.80699 -0.171432 0)
(1.78969 -0.174987 0)
(1.77874 -0.178051 0)
(1.75799 -0.179607 0)
(1.75068 -0.181032 0)
(1.72391 -0.180369 0)
(1.94849 -0.0438988 0)
(1.94964 -0.0552756 0)
(1.94647 -0.0665585 0)
(1.94019 -0.0772226 0)
(1.93277 -0.087201 0)
(1.92479 -0.0965966 0)
(1.91662 -0.105541 0)
(1.90748 -0.11402 0)
(1.89791 -0.122043 0)
(1.88689 -0.129487 0)
(1.87593 -0.136396 0)
(1.86309 -0.142602 0)
(1.8513 -0.148242 0)
(1.83659 -0.153031 0)
(1.82473 -0.15727 0)
(1.80772 -0.160454 0)
(1.79707 -0.163206 0)
(1.77669 -0.164598 0)
(1.76961 -0.165883 0)
(1.74337 -0.165295 0)
(1.96643 -0.0408964 0)
(1.96673 -0.0511492 0)
(1.96335 -0.0613768 0)
(1.95716 -0.0710819 0)
(1.94984 -0.0801696 0)
(1.94184 -0.0887105 0)
(1.9336 -0.0968199 0)
(1.92437 -0.104488 0)
(1.91477 -0.111729 0)
(1.90374 -0.118435 0)
(1.89284 -0.124648 0)
(1.88006 -0.130214 0)
(1.8684 -0.135267 0)
(1.85382 -0.139547 0)
(1.84213 -0.143336 0)
(1.82532 -0.146171 0)
(1.81488 -0.14863 0)
(1.79476 -0.149865 0)
(1.78786 -0.151016 0)
(1.76199 -0.150486 0)
(1.98424 -0.0377928 0)
(1.9837 -0.046941 0)
(1.98005 -0.0561159 0)
(1.97389 -0.0648547 0)
(1.96661 -0.0730466 0)
(1.95858 -0.080737 0)
(1.95023 -0.0880255 0)
(1.9409 -0.0949034 0)
(1.93123 -0.101389 0)
(1.92017 -0.107383 0)
(1.90927 -0.11293 0)
(1.89651 -0.117889 0)
(1.88491 -0.122386 0)
(1.8704 -0.126185 0)
(1.85884 -0.129549 0)
(1.84214 -0.132058 0)
(1.83185 -0.13424 0)
(1.8119 -0.135325 0)
(1.80513 -0.136347 0)
(1.77952 -0.135866 0)
(2.00138 -0.0345247 0)
(2.00003 -0.0425995 0)
(1.99607 -0.0507376 0)
(1.98989 -0.0585142 0)
(1.98263 -0.0658121 0)
(1.97453 -0.0726585 0)
(1.96609 -0.0791386 0)
(1.95663 -0.0852442 0)
(1.94688 -0.0909946 0)
(1.93576 -0.0963016 0)
(1.92484 -0.101207 0)
(1.91207 -0.105584 0)
(1.9005 -0.10955 0)
(1.88601 -0.112893 0)
(1.87453 -0.115854 0)
(1.85789 -0.118054 0)
(1.84771 -0.119973 0)
(1.82787 -0.120917 0)
(1.82118 -0.121816 0)
(1.79575 -0.121379 0)
(2.01741 -0.0310672 0)
(2.0153 -0.0381028 0)
(2.01103 -0.0452236 0)
(2.00479 -0.052047 0)
(1.99752 -0.0584565 0)
(1.98936 -0.0644668 0)
(1.98081 -0.0701501 0)
(1.97123 -0.0754989 0)
(1.9614 -0.080532 0)
(1.9502 -0.0851713 0)
(1.93924 -0.0894559 0)
(1.92644 -0.0932729 0)
(1.91488 -0.0967293 0)
(1.90039 -0.0996362 0)
(1.88895 -0.102212 0)
(1.87234 -0.104119 0)
(1.86223 -0.105786 0)
(1.84245 -0.106596 0)
(1.83584 -0.107378 0)
(1.81052 -0.106985 0)
(2.03201 -0.0274146 0)
(2.02921 -0.0334432 0)
(2.02463 -0.0395666 0)
(2.01832 -0.045448 0)
(2.01103 -0.0509773 0)
(2.00279 -0.0561603 0)
(1.99414 -0.0610582 0)
(1.98445 -0.0656638 0)
(1.97452 -0.0699948 0)
(1.96324 -0.0739831 0)
(1.95225 -0.0776639 0)
(1.9394 -0.0809385 0)
(1.92783 -0.0839023 0)
(1.91332 -0.08639 0)
(1.90191 -0.0885952 0)
(1.8853 -0.0902216 0)
(1.87525 -0.0916474 0)
(1.85549 -0.0923324 0)
(1.84893 -0.0930006 0)
(1.82369 -0.0926522 0)
(2.04494 -0.0235698 0)
(2.04152 -0.0286209 0)
(2.03665 -0.0337667 0)
(2.03026 -0.0387186 0)
(2.02293 -0.0433771 0)
(2.01463 -0.0477427 0)
(2.00588 -0.0518659 0)
(1.99608 -0.0557407 0)
(1.98607 -0.0593827 0)
(1.97471 -0.0627339 0)
(1.96367 -0.0658252 0)
(1.95078 -0.068572 0)
(1.93919 -0.0710571 0)
(1.92465 -0.0731396 0)
(1.91325 -0.0749861 0)
(1.89664 -0.0763436 0)
(1.88661 -0.0775363 0)
(1.86687 -0.0781029 0)
(1.86034 -0.0786615 0)
(1.83514 -0.07836 0)
(2.05598 -0.0195436 0)
(2.05204 -0.023644 0)
(2.04692 -0.0278307 0)
(2.04044 -0.0318654 0)
(2.03308 -0.0356627 0)
(2.02471 -0.0392205 0)
(2.01587 -0.0425793 0)
(2.00598 -0.0457343 0)
(1.99589 -0.0486987 0)
(1.98446 -0.0514248 0)
(1.97338 -0.0539381 0)
(1.96043 -0.0561695 0)
(1.94883 -0.0581874 0)
(1.93426 -0.0598761 0)
(1.92286 -0.0613737 0)
(1.90623 -0.0624717 0)
(1.89622 -0.0634381 0)
(1.87648 -0.0638925 0)
(1.86998 -0.0643448 0)
(1.8448 -0.0640928 0)
(2.06501 -0.0153638 0)
(2.06064 -0.018536 0)
(2.05529 -0.0217786 0)
(2.04874 -0.0249058 0)
(2.04134 -0.0278494 0)
(2.03292 -0.030607 0)
(2.024 -0.0332097 0)
(2.01403 -0.0356541 0)
(2.00387 -0.0379499 0)
(1.99239 -0.0400606 0)
(1.98126 -0.0420053 0)
(1.96827 -0.0437312 0)
(1.95665 -0.0452908 0)
(1.94204 -0.0465954 0)
(1.93064 -0.0477515 0)
(1.91399 -0.0485982 0)
(1.904 -0.0493434 0)
(1.88424 -0.0496914 0)
(1.87776 -0.0500397 0)
(1.85259 -0.0498403 0)
(2.07189 -0.0110727 0)
(2.06719 -0.0133352 0)
(2.06167 -0.015645 0)
(2.05506 -0.0178709 0)
(2.04763 -0.0199649 0)
(2.03916 -0.0219268 0)
(2.03018 -0.0237781 0)
(2.02014 -0.0255177 0)
(2.00993 -0.0271507 0)
(1.99839 -0.028653 0)
(1.98723 -0.0300352 0)
(1.97421 -0.0312634 0)
(1.96257 -0.0323703 0)
(1.94794 -0.0332989 0)
(1.93653 -0.0341177 0)
(1.91986 -0.034721 0)
(1.90988 -0.0352468 0)
(1.89011 -0.0354953 0)
(1.88364 -0.0357392 0)
(1.85847 -0.0355964 0)
(2.0765 -0.00662617 0)
(2.07159 -0.00800817 0)
(2.06597 -0.00940667 0)
(2.05931 -0.0107474 0)
(2.05186 -0.0120038 0)
(2.04335 -0.0131799 0)
(2.03433 -0.0142879 0)
(2.02424 -0.0153305 0)
(2.01399 -0.0163069 0)
(2.00243 -0.0172078 0)
(1.99124 -0.0180325 0)
(1.9782 -0.0187702 0)
(1.96654 -0.019428 0)
(1.95189 -0.0199884 0)
(1.94047 -0.0204711 0)
(1.9238 -0.0208397 0)
(1.91381 -0.0211438 0)
(1.89404 -0.0213029 0)
(1.88757 -0.0214372 0)
(1.86241 -0.021359 0)
(2.07876 -0.00205538 0)
(2.07376 -0.00256139 0)
(2.0681 -0.00305949 0)
(2.06144 -0.00352877 0)
(2.05398 -0.00396291 0)
(2.04546 -0.00436613 0)
(2.03642 -0.00474298 0)
(2.02631 -0.00509669 0)
(2.01604 -0.00542569 0)
(2.00445 -0.00572978 0)
(1.99326 -0.00600562 0)
(1.9802 -0.00625439 0)
(1.96853 -0.00647262 0)
(1.95388 -0.00666259 0)
(1.94245 -0.00682053 0)
(1.92577 -0.00694787 0)
(1.91578 -0.00704425 0)
(1.89602 -0.00710325 0)
(1.88955 -0.00714221 0)
(1.86438 -0.00712074 0)
(1.84518 0.14905 -6.36159e-22)
(1.86448 0.126778 0)
(1.87738 0.103615 3.58903e-22)
(1.88595 0.0797378 1.13916e-20)
(1.88746 0.0553532 -3.18732e-20)
(1.88691 0.0313705 0)
(1.87926 0.00660776 -3.88146e-20)
(1.85938 -0.0161115 0)
(1.85391 -0.041033 -4.54713e-20)
(1.7324 -0.0693459 7.06966e-22)
(1.8548 0.133888 1.85569e-22)
(1.87213 0.114531 -2.14762e-22)
(1.88445 0.0940468 2.15195e-22)
(1.89093 0.0738174 -2.00915e-21)
(1.8954 0.0519952 1.10394e-20)
(1.88866 0.031601 8.71452e-22)
(1.89584 0.00941604 0)
(1.86065 -0.0120968 3.42045e-20)
(1.89103 -0.0307883 0)
(1.80106 -0.060272 4.02413e-20)
(1.86916 0.118863 -1.83116e-22)
(1.88253 0.101801 0)
(1.89565 0.0833071 2.38135e-22)
(1.89652 0.0653722 -2.11853e-21)
(1.90664 0.0461268 -1.19241e-20)
(1.89027 0.0272874 0)
(1.9086 0.00931695 -2.58684e-20)
(1.86673 -0.0127036 -3.49973e-20)
(1.89819 -0.0264312 0)
(1.84212 -0.0532061 -3.98326e-20)
(1.88604 0.105723 -1.44953e-23)
(1.89531 0.090224 -7.19296e-22)
(1.91003 0.0740262 0)
(1.90553 0.0573752 -7.95471e-21)
(1.91947 0.0413021 -6.24265e-22)
(1.89825 0.0228236 1.3548e-21)
(1.91727 0.00877276 2.51987e-20)
(1.88102 -0.0128122 8.28175e-22)
(1.89986 -0.024559 2.87029e-20)
(1.86534 -0.047139 0)
(1.90394 0.0940358 0)
(1.91038 0.07975 6.7117e-22)
(1.92555 0.0660353 1.47947e-21)
(1.91886 0.0502712 -5.41323e-22)
(1.93237 0.0371281 4.04688e-22)
(1.91266 0.0193602 6.24651e-22)
(1.92551 0.00764989 1.85898e-20)
(1.89853 -0.0118708 1.51849e-21)
(1.90621 -0.0233908 -4.05646e-21)
(1.88055 -0.0425291 -2.78399e-20)
(1.92192 0.0835229 4.66327e-22)
(1.92726 0.0703328 -2.1775e-23)
(1.94108 0.0587066 -5.2806e-22)
(1.93523 0.0439865 -9.36786e-23)
(1.94549 0.0327919 5.31409e-21)
(1.93017 0.0165286 0)
(1.93635 0.00573559 -2.05064e-20)
(1.9159 -0.0111786 6.18481e-22)
(1.91773 -0.0227819 -4.70359e-20)
(1.89424 -0.0394328 5.19304e-20)
(1.93968 0.073927 -4.68621e-22)
(1.94505 0.0619229 -5.418e-22)
(1.95659 0.0517782 -6.44037e-22)
(1.95276 0.038433 1.9985e-21)
(1.95955 0.0283114 -1.03849e-21)
(1.9481 0.0139487 5.72414e-21)
(1.95022 0.00351196 -5.27841e-22)
(1.93287 -0.0111351 1.12946e-21)
(1.93263 -0.0224254 2.12241e-20)
(1.90948 -0.0371998 -2.41266e-20)
(1.95716 0.0651211 0)
(1.96284 0.0544019 1.38187e-21)
(1.97225 0.0452905 -2.91098e-23)
(1.97012 0.0334793 -1.69544e-21)
(1.97465 0.0240522 -1.15537e-21)
(1.9655 0.0115174 -9.87846e-21)
(1.96603 0.00152848 5.50911e-21)
(1.95009 -0.0113477 0)
(1.94941 -0.0219192 0)
(1.92675 -0.0352328 0)
(1.97425 0.0570674 0)
(1.98006 0.0476248 -1.72641e-21)
(1.98795 0.0393472 -7.87959e-23)
(1.98682 0.0290015 -5.6462e-22)
(1.99024 0.0202499 -2.90488e-21)
(1.98235 0.0092689 4.80614e-21)
(1.98253 -2.42191e-05 -6.51282e-21)
(1.96767 -0.0114989 3.66373e-22)
(1.96691 -0.0211913 0)
(1.94537 -0.033306 -7.88121e-21)
(1.99074 0.0497352 8.88718e-23)
(1.99641 0.0414713 1.0353e-21)
(2.00335 0.0339859 1.21451e-21)
(2.00271 0.0249308 7.38313e-23)
(2.00568 0.0169424 -3.20786e-23)
(1.99866 0.00724936 2.67789e-21)
(1.99883 -0.00120538 -4.2631e-21)
(1.98522 -0.011511 2.9852e-22)
(1.98433 -0.0203093 0)
(1.96447 -0.031347 1.45331e-20)
(2.00635 0.0430713 0)
(2.01176 0.0358615 1.39673e-21)
(2.01805 0.0291758 3.78434e-22)
(2.01774 0.0212412 0)
(2.02047 0.0140771 0)
(2.0143 0.00548798 -2.2877e-21)
(2.01443 -0.00209256 3.56737e-21)
(2.00228 -0.0113525 3.04991e-22)
(2.00117 -0.019263 -1.20419e-22)
(1.98337 -0.0292714 -6.8412e-21)
(2.02085 0.0370048 0)
(2.026 0.0307411 -2.80876e-21)
(2.03176 0.024857 -1.99707e-21)
(2.03177 0.0179202 1.61606e-22)
(2.03428 0.0115948 -7.03292e-23)
(2.02904 0.00400487 1.13256e-22)
(2.02904 -0.00270687 -2.98594e-22)
(2.01848 -0.0109738 -2.69429e-21)
(2.01709 -0.0180009 -3.96526e-22)
(2.00153 -0.0270032 1.48712e-22)
(2.03407 0.0314604 0)
(2.03901 0.0260641 1.56633e-21)
(2.0443 0.0209668 -1.12018e-22)
(2.04467 0.0149507 1.11092e-22)
(2.04693 0.00945161 0)
(2.04264 0.00280794 0)
(2.04247 -0.00305098 0)
(2.03352 -0.0103463 3.11319e-21)
(2.03182 -0.0165039 -3.26607e-21)
(2.01849 -0.0245094 0)
(2.04589 0.0263667 0)
(2.05068 0.0217833 1.10477e-21)
(2.05553 0.0174486 1.13716e-21)
(2.05627 0.0123064 1.02217e-21)
(2.05828 0.00761122 -1.50074e-22)
(2.05493 0.00188625 2.51598e-22)
(2.05456 -0.00314079 3.50849e-22)
(2.04714 -0.00947533 0)
(2.04514 -0.0147831 5.05845e-22)
(2.03393 -0.0217875 3.46497e-21)
(2.05622 0.0216578 -3.09646e-22)
(2.06091 0.0178484 -9.18445e-22)
(2.06536 0.0142495 -1.47781e-21)
(2.06647 0.00995227 -7.28315e-22)
(2.06824 0.00603655 0)
(2.06574 0.00121378 -2.3152e-22)
(2.06519 -0.00300367 -4.32727e-22)
(2.05916 -0.00838148 6.17106e-23)
(2.05688 -0.0128572 1.56298e-21)
(2.04758 -0.0188456 -4.73717e-21)
(2.06501 0.017298 3.11236e-22)
(2.06961 0.0142235 -7.94924e-22)
(2.07373 0.0113297 5.49705e-22)
(2.07516 0.0078536 -1.08387e-21)
(2.07671 0.00469208 0)
(2.07496 0.000759513 0)
(2.07424 -0.00266888 -3.38819e-23)
(2.06942 -0.00708832 5.50052e-22)
(2.06689 -0.0107461 9.54843e-22)
(2.05925 -0.0156983 1.39194e-21)
(2.07218 0.0131687 0)
(2.07672 0.0108308 1.24736e-21)
(2.08056 0.00862918 -3.62644e-22)
(2.08226 0.00596 1.02094e-21)
(2.08364 0.00353204 2.3022e-22)
(2.0825 0.000481739 -5.87283e-23)
(2.08163 -0.00217495 4.69062e-23)
(2.0778 -0.00563144 -4.12906e-22)
(2.07506 -0.00848346 0)
(2.06879 -0.0123773 0)
(2.07771 0.00924336 0)
(2.08219 0.00764115 5.3894e-22)
(2.0858 0.00611987 -8.07431e-22)
(2.0877 0.00424517 0)
(2.08893 0.00253218 -4.11241e-22)
(2.08826 0.000354539 -7.63561e-23)
(2.08727 -0.00154794 -1.05082e-22)
(2.0842 -0.00404327 5.00815e-23)
(2.08129 -0.00610376 -9.829e-26)
(2.07606 -0.00892892 -4.69948e-23)
(2.0815 0.00554368 0)
(2.08591 0.00464583 -5.41528e-22)
(2.08935 0.00379594 -3.97656e-22)
(2.09137 0.00271714 4.45804e-22)
(2.0925 0.00171945 1.53179e-22)
(2.09214 0.000418559 1.28208e-22)
(2.09108 -0.000732817 1.98898e-22)
(2.08851 -0.00226381 3.42171e-23)
(2.08548 -0.00354334 -3.63216e-23)
(2.08095 -0.00529832 0)
(2.08341 0.00173722 0)
(2.08778 0.00156041 2.48503e-22)
(2.09114 0.00139192 -2.20222e-22)
(2.09321 0.00112533 1.86393e-22)
(2.09428 0.000860165 0)
(2.09408 0.000463965 -1.28849e-22)
(2.09296 9.03071e-05 2.66645e-23)
(2.09064 -0.000437573 -4.16564e-23)
(2.08754 -0.000904245 0)
(2.08334 -0.00154823 0)
(1.27596 0.323729 0)
(1.23857 0.354841 -4.54495e-20)
(1.2103 0.3949 0)
(1.1879 0.445296 -1.49314e-19)
(1.16814 0.505533 5.95299e-20)
(1.14936 0.577868 3.05403e-21)
(1.12994 0.664141 4.00033e-20)
(1.09175 0.754625 -1.09343e-20)
(0.957867 0.782283 0)
(0.558583 0.498944 2.67277e-20)
(1.3497 0.32526 8.10579e-20)
(1.31594 0.36419 4.54477e-20)
(1.29366 0.403074 -4.00035e-20)
(1.27657 0.45183 5.0468e-20)
(1.26224 0.51137 -3.58406e-20)
(1.25046 0.582923 1.06397e-20)
(1.23953 0.667605 -4.35639e-20)
(1.20813 0.754012 -7.76123e-20)
(1.06811 0.773312 -2.04287e-20)
(0.620338 0.481494 -3.73439e-20)
(1.42112 0.321149 -3.29526e-20)
(1.39414 0.362002 3.34497e-20)
(1.37691 0.400207 4.00016e-20)
(1.36368 0.448126 3.97929e-20)
(1.3541 0.506906 3.89768e-20)
(1.34905 0.576922 3.7071e-20)
(1.3459 0.658439 1.23952e-20)
(1.31933 0.73794 2.64615e-20)
(1.1697 0.746442 9.17171e-22)
(0.671465 0.4503 -9.79063e-22)
(1.49317 0.313791 6.60055e-20)
(1.47167 0.354036 -3.34479e-20)
(1.45798 0.390658 0)
(1.44782 0.436768 0)
(1.44253 0.493489 0)
(1.44356 0.560588 1.74043e-20)
(1.44684 0.637183 -6.52288e-21)
(1.42208 0.707131 0)
(1.25843 0.702675 -7.6774e-21)
(0.707207 0.406484 1.91645e-20)
(1.5624 0.302673 -8.75597e-21)
(1.54521 0.340884 3.86969e-20)
(1.53444 0.375475 0)
(1.5272 0.419007 0)
(1.52594 0.472379 5.8155e-21)
(1.53226 0.535166 2.93097e-21)
(1.54006 0.605434 1.01646e-20)
(1.51352 0.662486 -7.59029e-21)
(1.32882 0.643738 -3.18514e-20)