/*--------------------------------*- C++ -*----------------------------------*\
| =========                 |                                                 |
| \\      /  F ield         | OpenFOAM: The Open Source CFD Toolbox           |
|  \\    /   O peration     | Version:  4.1                                   |
|   \\  /    A nd           | Web:      www.OpenFOAM.org                      |
|    \\/     M anipulation  |                                                 |
\*---------------------------------------------------------------------------*/
FoamFile
{
    version     2.0;
    format      ascii;
    class       volScalarField;
    location    "12.9";
    object      p;
}
// * * * * * * * * * * * * * * * * * * * * * * * * * * * * * * * * * * * * * //

dimensions      [0 2 -2 0 0 0 0];

internalField   nonuniform List<scalar> 
2000
(
0.000281355
0.00934934
0.0178191
0.0259967
0.0336213
0.04068
0.0474537
0.0531723
0.0595524
0.0603912
-0.0164321
-0.00392418
0.00678419
0.0168804
0.0264103
0.0353803
0.0438556
0.0515663
0.0591244
0.0635666
-0.0366309
-0.0201399
-0.00696706
0.0054361
0.017584
0.0293314
0.0405153
0.0509276
0.0607366
0.0691308
-0.0602641
-0.0393137
-0.0233582
-0.00785022
0.00807804
0.0237358
0.0385455
0.0521935
0.0649002
0.0756355
-0.0864841
-0.0608698
-0.041542
-0.0215752
-0.000417599
0.020227
0.0393117
0.0565629
0.0720141
0.0852863
-0.113662
-0.0834588
-0.0596042
-0.0334187
-0.00570668
0.0206179
0.0442656
0.0650959
0.0833207
0.0990717
-0.139103
-0.104814
-0.0746458
-0.0405292
-0.00548915
0.026657
0.0547405
0.0789606
0.0998136
0.118015
-0.159335
-0.121693
-0.0833263
-0.0401327
0.00228237
0.0398665
0.0719549
0.0991954
0.122516
0.143029
-0.17068
-0.130202
-0.0824692
-0.0299622
0.0192273
0.0615005
0.0969412
0.126708
0.15217
0.174552
-0.16983
-0.126677
-0.0693542
-0.00836539
0.0464824
0.0924724
0.130481
0.162172
0.189289
0.212871
0.0639754
0.0606795
0.0593041
0.058357
0.0575053
0.056738
0.056034
0.0553551
0.0546181
0.0536346
0.0625646
0.0595039
0.0582833
0.0574577
0.0567351
0.0561189
0.0555967
0.0551535
0.0547388
0.0539905
0.0598714
0.0572879
0.0563608
0.0557988
0.0553587
0.0550655
0.0549214
0.0549302
0.0551409
0.0550958
0.0561434
0.0542181
0.0537433
0.0536117
0.053627
0.0538413
0.0542792
0.054925
0.0559985
0.0579251
0.0516039
0.0504702
0.0506209
0.051102
0.0517451
0.0526254
0.0538189
0.0553727
0.0576666
0.0607427
0.0463592
0.0461347
0.0471043
0.0483826
0.0498056
0.0514601
0.0534835
0.0559886
0.0595368
0.0652437
0.040333
0.0411693
0.0431846
0.0454452
0.0477953
0.0503024
0.0531843
0.056596
0.0608236
0.0704195
0.0332336
0.0354351
0.0386567
0.0421352
0.0455821
0.0490411
0.0528185
0.0571775
0.0614089
0.0743262
0.0245519
0.028554
0.0332418
0.0381302
0.0428237
0.0473389
0.052026
0.0571581
0.0617046
0.0748655
0.0137767
0.0200182
0.0264724
0.0329294
0.0390008
0.044671
0.0502924
0.0555813
0.0609442
0.0685994
0.0522814
0.0508873
0.0493308
0.0475752
0.045626
0.0434874
0.0411658
0.0386716
0.0360192
0.0332251
0.0303073
0.0272835
0.0241694
0.0209787
0.017727
0.0144269
0.0110485
0.00748993
0.00382127
0.00087985
0.0523093
0.0510038
0.0495515
0.0478483
0.0459311
0.0438125
0.041499
0.0390025
0.036339
0.0335271
0.0305868
0.0275383
0.0243994
0.0211853
0.0179112
0.0145913
0.0112023
0.00763303
0.00389625
0.000841703
0.0525689
0.0514973
0.0502419
0.0486201
0.0467578
0.044672
0.0423689
0.0398621
0.0371702
0.0343147
0.0313194
0.0282082
0.0250032
0.0217228
0.0183831
0.0149993
0.0115576
0.00794854
0.00410723
0.000828775
0.0525819
0.0527842
0.0516705
0.050088
0.0483071
0.0462744
0.0439922
0.0414751
0.0387441
0.0358242
0.0327425
0.0295268
0.026204
0.0227969
0.0193239
0.0158005
0.0122261
0.008517
0.00453136
0.000842964
0.0549244
0.054048
0.053625
0.0524369
0.0507444
0.0487625
0.0465167
0.0440014
0.0412324
0.0382382
0.0350492
0.0316957
0.0282076
0.024612
0.0209303
0.0171768
0.0133579
0.00942984
0.00524095
0.00102922
0.0569227
0.0555878
0.0559433
0.055279
0.0537329
0.0518321
0.0496773
0.047222
0.0444616
0.0414282
0.0381564
0.0346762
0.0310171
0.0272071
0.0232701
0.01922
0.0150618
0.0107727
0.00627035
0.00156201
0.0590046
0.0567179
0.0581053
0.058182
0.0568807
0.0551056
0.0531134
0.0507935
0.0481029
0.0450823
0.0417743
0.0382058
0.0344024
0.0303898
0.0261918
0.0218185
0.0172763
0.012531
0.00759288
0.00219391
0.0606706
0.0572097
0.0596197
0.0606495
0.0596061
0.0580639
0.056356
0.0542538
0.0516972
0.0487527
0.0454694
0.0418661
0.0379626
0.0337796
0.0293426
0.0246498
0.0197197
0.0144692
0.00898856
0.00285196
0.0621425
0.0586104
0.0619962
0.063212
0.0622922
0.0610624
0.0596398
0.0576699
0.055161
0.052229
0.0489277
0.0452646
0.0412543
0.036906
0.0322479
0.0272534
0.0219607
0.0162268
0.0101842
0.00337237
0.0571578
0.0579336
0.0623819
0.0637282
0.063615
0.0631378
0.0622801
0.0606948
0.0584441
0.0556522
0.0523856
0.0486653
0.0445238
0.0399688
0.0350443
0.0297064
0.0240194
0.0178095
0.0112217
0.00381968
0.0704364
0.071641
0.0688775
0.067163
0.066498
0.0658849
0.0646033
0.0627025
0.0602428
0.0572904
0.0538875
0.0500416
0.0457793
0.0410921
0.0360252
0.0305206
0.0246519
0.0182471
0.0114512
0.00391349
0.0686664
0.0703884
0.0696583
0.0686002
0.0677783
0.0668293
0.0653493
0.0632794
0.0606747
0.0575941
0.0540787
0.0501369
0.0457916
0.0410304
0.0358909
0.0303215
0.0243841
0.0179471
0.0111361
0.00373204
0.0736554
0.0737398
0.0732577
0.072184
0.0707589
0.0690495
0.0669696
0.0644645
0.0615294
0.0581806
0.0544392
0.0503112
0.0458092
0.040925
0.035677
0.030038
0.0240372
0.0176197
0.0108471
0.0036744
0.0808041
0.0784942
0.0772909
0.0758955
0.0739338
0.0715511
0.0688699
0.0658982
0.0625989
0.0589524
0.0549551
0.050614
0.0459294
0.0409059
0.0355364
0.0298302
0.0237698
0.0173894
0.0106522
0.00368306
0.0885249
0.0843703
0.0820112
0.0799355
0.0773849
0.0743754
0.0710937
0.0676145
0.0639044
0.0599235
0.0556411
0.0510631
0.0461743
0.0409956
0.0354937
0.0297141
0.0235922
0.0172365
0.0105181
0.0036924
0.0967534
0.0911396
0.087423
0.0843856
0.0811332
0.0774968
0.0736161
0.0696021
0.0654411
0.0610909
0.0564971
0.051661
0.046551
0.0412014
0.0355573
0.0296909
0.0235018
0.0171453
0.0104325
0.00369115
0.105285
0.0983179
0.0932377
0.0891358
0.0851023
0.0808224
0.0763493
0.0717946
0.0671628
0.0624202
0.0574963
0.052387
0.0470447
0.0415114
0.035717
0.0297492
0.0234856
0.0171032
0.0103849
0.00368027
0.113691
0.105524
0.0992182
0.0940735
0.0892257
0.0842841
0.0792232
0.0741337
0.0690267
0.0638794
0.0586135
0.0532199
0.0476373
0.0419103
0.0359584
0.029876
0.0235295
0.017101
0.0103654
0.0036659
0.121729
0.112592
0.105231
0.0991049
0.0934384
0.0878244
0.0821813
0.0765691
0.0709932
0.0654391
0.0598253
0.0541407
0.0483125
0.0423849
0.0362693
0.0300623
0.0236239
0.0171348
0.0103691
0.00365645
0.129339
0.119447
0.111173
0.104129
0.0976579
0.0913765
0.0851652
0.0790494
0.0730199
0.067066
0.0611059
0.0551292
0.0490538
0.0429227
0.0366393
0.0303013
0.0237626
0.0172035
0.0103948
0.00365838
0.136464
0.126006
0.116937
0.109035
0.101791
0.0948651
0.0881116
0.0815199
0.0750601
0.0687223
0.0624253
0.0561617
0.0498422
0.0435089
0.0370566
0.030585
0.0239399
0.0173044
0.0104412
0.00367357
0.143011
0.132167
0.122415
0.113719
0.105746
0.098215
0.0909573
0.083925
0.0770651
0.0703663
0.063749
0.0572098
0.0506545
0.0441244
0.0375062
0.0309009
0.0241468
0.0174303
0.0105045
0.00369783
0.148903
0.137828
0.127503
0.118091
0.109446
0.10136
0.0936431
0.0862107
0.0789863
0.0719547
0.0650398
0.0582412
0.0514634
0.0447449
0.0379681
0.0312315
0.0243703
0.0175686
0.0105775
0.00372119
0.154122
0.142906
0.132111
0.122074
0.112833
0.104247
0.0961195
0.0883292
0.0807787
0.0734464
0.066261
0.0592228
0.0522394
0.0453437
0.0384199
0.0315558
0.0245945
0.0177035
0.0106507
0.00373111
0.15869
0.147346
0.136169
0.125615
0.115864
0.106841
0.0983499
0.0902423
0.0824053
0.0748069
0.0673826
0.0601287
0.0529627
0.0459011
0.0388443
0.031856
0.0248051
0.0178216
0.0107151
0.0037185
0.162612
0.151104
0.139623
0.128672
0.118512
0.109117
0.100306
0.0919194
0.0838342
0.0760044
0.068373
0.0609276
0.0536006
0.0463911
0.0392197
0.0321178
0.0249912
0.0179161
0.0107664
0.0036833
0.165851
0.154141
0.142428
0.131192
0.120723
0.111029
0.101954
0.093332
0.0850397
0.077016
0.0692127
0.0616049
0.0541437
0.0468059
0.0395392
0.0323363
0.025148
0.0179877
0.0108046
0.00363513
0.168358
0.156436
0.144546
0.133119
0.122436
0.112522
0.103244
0.0944389
0.0859857
0.0778109
0.0698748
0.0621391
0.0545733
0.0471324
0.0397916
0.0325062
0.0252708
0.0180391
0.0108313
0.0035868
0.170157
0.15804
0.146002
0.134438
0.123613
0.11355
0.104134
0.0952014
0.0866378
0.0783594
0.0703328
0.0625085
0.0548708
0.0473578
0.0399662
0.0326225
0.0253551
0.0180723
0.0108476
0.00354853
0.171265
0.159011
0.146838
0.135167
0.12425
0.114102
0.104607
0.095605
0.086982
0.0786487
0.0705739
0.0627032
0.0550272
0.0474766
0.0400577
0.0326843
0.0253992
0.018091
0.0108556
0.00353013
0.231595
0.193325
0.161094
0.134741
0.114095
0.0983942
0.0869688
0.0782583
0.0728551
0.0616734
0.247072
0.209862
0.178153
0.151487
0.129925
0.112192
0.0988662
0.0860282
0.0788972
0.0647848
0.261272
0.22539
0.194578
0.16787
0.145791
0.126082
0.111103
0.0951366
0.0871882
0.0735084
0.274155
0.239474
0.209447
0.182638
0.160252
0.139263
0.123602
0.106788
0.0982517
0.0844518
0.285739
0.252056
0.222673
0.195828
0.173388
0.151948
0.136087
0.11908
0.109012
0.0944195
0.296139
0.263331
0.234551
0.207861
0.185546
0.164034
0.147744
0.130275
0.118662
0.103724
0.305467
0.273473
0.245288
0.218893
0.196706
0.175162
0.158302
0.1405
0.128106
0.113193
0.313805
0.282576
0.25495
0.228902
0.206802
0.185284
0.168076
0.150303
0.137555
0.122631
0.321199
0.290678
0.263565
0.237886
0.215894
0.19454
0.177227
0.159619
0.146517
0.131583
0.327696
0.297822
0.271175
0.245891
0.224059
0.202964
0.185613
0.168149
0.154676
0.139875
0.333393
0.304115
0.277873
0.252987
0.231334
0.210517
0.193114
0.175799
0.162034
0.147462
0.3383
0.309635
0.28374
0.259238
0.237757
0.217209
0.199764
0.182622
0.168661
0.154267
0.34249
0.314352
0.288814
0.264697
0.243394
0.223103
0.205659
0.188671
0.174586
0.160255
0.345988
0.318343
0.293176
0.269436
0.248327
0.22827
0.210874
0.193994
0.179841
0.165497
0.348923
0.321738
0.296925
0.273534
0.252623
0.232777
0.215447
0.198659
0.18446
0.170123
0.351369
0.324605
0.300107
0.277035
0.256306
0.236667
0.219389
0.202725
0.188457
0.174211
0.353343
0.326958
0.302725
0.279954
0.259369
0.239954
0.222691
0.206202
0.19181
0.177719
0.354811
0.328774
0.30476
0.282276
0.261801
0.24262
0.225343
0.209049
0.194496
0.180544
0.355684
0.329961
0.306142
0.283928
0.263558
0.244606
0.227323
0.21121
0.196513
0.182638
0.355911
0.330395
0.306717
0.284709
0.264442
0.245671
0.228421
0.21245
0.1977
0.183881
0.806049
0.80732
0.801209
0.789207
0.772479
0.750606
0.721211
0.681166
0.632245
0.605616
0.756376
0.753737
0.739865
0.721473
0.699596
0.67217
0.635973
0.587715
0.529258
0.495645
0.700655
0.692705
0.672911
0.649586
0.622985
0.590036
0.547164
0.491104
0.423702
0.383584
0.636123
0.624104
0.600898
0.574244
0.543693
0.505765
0.456887
0.394021
0.318731
0.273258
0.56768
0.552363
0.52679
0.497568
0.463661
0.421443
0.367516
0.299366
0.217719
0.168792
0.499252
0.480842
0.453381
0.422076
0.385378
0.33964
0.281596
0.20978
0.124267
0.074638
0.432859
0.411663
0.382867
0.350055
0.31124
0.263
0.201914
0.126971
0.044182
-0.00654796
0.369849
0.34648
0.317068
0.283499
0.243301
0.193972
0.131448
0.0564581
-0.0222784
-0.0726106
0.311477
0.286833
0.257664
0.224185
0.183791
0.133934
0.0723269
-0.000161175
-0.0735291
-0.121995
0.258375
0.234189
0.205895
0.172951
0.13326
0.0846691
0.0256306
-0.0421615
-0.1083
-0.154178
1.07424
1.08292
1.09288
1.10416
1.11674
1.1305
1.14498
1.15888
1.17143
1.18877
1.07149
1.07958
1.0891
1.09988
1.11183
1.12481
1.13834
1.1511
1.16233
1.17894
1.06569
1.07259
1.08124
1.09104
1.10174
1.11318
1.12481
1.13526
1.14399
1.15896
1.05628
1.06139
1.06874
1.07711
1.08598
1.09514
1.10397
1.11102
1.11605
1.12849
1.04251
1.04522
1.0509
1.05742
1.06392
1.07012
1.07529
1.0779
1.07805
1.08708
1.02353
1.02322
1.02687
1.03118
1.03483
1.03745
1.03821
1.03541
1.02954
1.03428
0.998495
0.994603
0.996018
0.997862
0.998212
0.99666
0.992278
0.983192
0.97024
0.969856
0.965948
0.958062
0.957395
0.956749
0.953499
0.947323
0.937234
0.921125
0.900148
0.89388
0.925341
0.913802
0.91165
0.908214
0.900786
0.889495
0.873215
0.84948
0.819682
0.806929
0.871526
0.861065
0.858946
0.852342
0.840327
0.82367
0.800871
0.769064
0.729836
0.710216
1.00061
1.00214
1.00423
1.00649
1.00873
1.011
1.01335
1.01582
1.01844
1.02123
1.02422
1.02742
1.03088
1.03465
1.03878
1.04331
1.0483
1.05382
1.05993
1.06672
1.00061
1.00215
1.00422
1.00643
1.00864
1.01087
1.01318
1.01561
1.01818
1.02092
1.02383
1.02696
1.03033
1.034
1.03799
1.04237
1.04717
1.05246
1.05828
1.06472
1.00064
1.00217
1.00416
1.00629
1.00843
1.01058
1.01281
1.01515
1.01762
1.02023
1.023
1.02597
1.02915
1.03259
1.03631
1.04036
1.04476
1.04956
1.05476
1.06044
1.00066
1.00216
1.00403
1.00604
1.00806
1.01009
1.01219
1.01438
1.01669
1.01909
1.02162
1.02432
1.02718
1.03025
1.03352
1.03702
1.04076
1.04475
1.04891
1.05336
1.00067
1.00211
1.00382
1.00565
1.00749
1.00934
1.01124
1.0132
1.01526
1.01736
1.01955
1.02184
1.02424
1.02674
1.02934
1.03202
1.03476
1.03754
1.04017
1.04276
1.00066
1.00201
1.0035
1.00508
1.00668
1.00828
1.00991
1.01159
1.01324
1.01491
1.01662
1.01836
1.02009
1.0218
1.02345
1.02498
1.02632
1.02739
1.02787
1.02781
1.0006
1.0018
1.00302
1.00428
1.00555
1.00683
1.00811
1.00933
1.01049
1.01162
1.01271
1.01369
1.01454
1.01518
1.01554
1.01551
1.01494
1.01368
1.01132
1.00779
1.00048
1.00145
1.00235
1.00324
1.00414
1.00498
1.00573
1.00639
1.00697
1.00742
1.0077
1.00772
1.00744
1.00671
1.00544
1.0034
1.00042
0.996107
0.990032
0.981515
1.00028
1.0009
1.00142
1.00187
1.00226
1.00256
1.00275
1.00278
1.00262
1.00221
1.00147
1.0003
0.998603
0.99616
0.992894
0.98834
0.982506
0.974341
0.963949
0.948737
1.00008
1.00018
1.00027
1.00026
1.00009
0.99975
0.999242
0.998513
0.997492
0.996058
0.994127
0.991493
0.988069
0.983421
0.977531
0.969382
0.959394
0.945
0.928448
0.903202
0.999788
0.999442
0.999173
0.998682
0.997866
0.996781
0.995482
0.993892
0.991896
0.989307
0.986025
0.981764
0.976438
0.969433
0.960783
0.949062
0.934829
0.914083
0.888834
0.845801
0.999483
0.998749
0.99811
0.997066
0.995514
0.993639
0.991564
0.989158
0.98625
0.982598
0.978128
0.972491
0.965657
0.956866
0.946301
0.932271
0.915692
0.892628
0.8665
0.829658
0.999853
0.998741
0.997509
0.995567
0.992993
0.990237
0.987421
0.984241
0.980444
0.975759
0.970171
0.963282
0.955131
0.94485
0.932792
0.917178
0.899329
0.875587
0.85002
0.815261
0.999314
0.999349
0.998105
0.994569
0.990373
0.986588
0.983089
0.979175
0.974483
0.968757
0.962078
0.954007
0.944647
0.933053
0.91975
0.902914
0.884211
0.859965
0.834638
0.800649
0.999164
1.00074
0.999047
0.993204
0.987139
0.982461
0.978462
0.973889
0.968316
0.961579
0.953872
0.944715
0.934271
0.921538
0.907206
0.889415
0.870071
0.84547
0.820327
0.787275
0.999344
1.00214
0.999006
0.990644
0.983194
0.97813
0.973769
0.96848
0.961992
0.954289
0.94564
0.935502
0.92409
0.910378
0.895185
0.876664
0.85684
0.832128
0.807222
0.77527
0.994738
0.992875
0.989655
0.982994
0.97768
0.973749
0.969183
0.962984
0.955522
0.946945
0.937474
0.926473
0.91419
0.899641
0.883716
0.864663
0.844482
0.819878
0.795202
0.764387
0.999021
0.982269
0.967604
0.966141
0.969085
0.969003
0.964572
0.957301
0.948872
0.939578
0.92944
0.917709
0.904654
0.889406
0.872861
0.853453
0.833003
0.80866
0.784166
0.754482
0.994214
0.965948
0.949
0.953888
0.963374
0.965864
0.960997
0.952428
0.942937
0.932881
0.922044
0.909596
0.895797
0.879937
0.862839
0.843194
0.82252
0.798516
0.774148
0.745535
0.993729
0.962013
0.943928
0.950725
0.961755
0.964069
0.958039
0.94829
0.937872
0.927043
0.915437
0.902261
0.887757
0.871373
0.853801
0.834
0.813142
0.78949
0.765221
0.737552
0.997594
0.97554
0.961885
0.964169
0.967684
0.964605
0.956028
0.945233
0.934064
0.922392
0.909876
0.895906
0.880723
0.863878
0.845909
0.825986
0.804988
0.78163
0.75747
0.730541
0.991715
0.99517
1.00107
0.995207
0.982555
0.968775
0.95598
0.943937
0.931974
0.919279
0.905669
0.890793
0.874928
0.857635
0.839325
0.819254
0.798158
0.774964
0.750948
0.724491
1.00176
1.02169
1.03157
1.01714
0.992964
0.971546
0.955632
0.942731
0.930231
0.91671
0.902167
0.886502
0.870087
0.85242
0.833873
0.813644
0.792522
0.769361
0.745561
0.719297
1.00764
1.03579
1.04666
1.02781
0.997794
0.972275
0.95474
0.941464
0.928642
0.914494
0.899219
0.882913
0.866071
0.848087
0.829374
0.808976
0.787875
0.764668
0.741128
0.714901
1.0097
1.0433
1.05554
1.03275
0.998255
0.970392
0.952497
0.939503
0.926681
0.91217
0.896409
0.879657
0.862508
0.844278
0.825429
0.804908
0.783833
0.760634
0.737326
0.711248
1.00602
1.04594
1.066
1.03999
0.998812
0.967418
0.948735
0.936012
0.923575
0.909104
0.893233
0.876357
0.859053
0.84068
0.821706
0.801164
0.780096
0.757066
0.733902
0.708243
0.977118
0.987267
1.01508
1.01373
0.993406
0.969919
0.950497
0.934827
0.920591
0.905812
0.89018
0.873478
0.856093
0.837606
0.818459
0.79795
0.776843
0.754092
0.730973
0.705856
1.00169
0.9451
0.89926
0.913367
0.943622
0.95604
0.948364
0.931962
0.915478
0.900683
0.886188
0.87045
0.853379
0.834959
0.815712
0.795305
0.774187
0.751745
0.72866
0.704002
1.00651
0.946783
0.889035
0.896973
0.930195
0.947291
0.943228
0.929162
0.913634
0.898861
0.884179
0.86846
0.851456
0.83315
0.813877
0.793551
0.772413
0.750186
0.727136
0.702808
0.973056
0.988257
1.02204
1.01052
0.977305
0.951945
0.93792
0.927133
0.914646
0.900033
0.884258
0.867773
0.850542
0.832293
0.813034
0.792746
0.771557
0.749428
0.726395
0.702295
0.800189
0.746953
0.692296
0.632229
0.56798
0.503705
0.44154
0.382229
0.326739
0.276037
0.79414
0.738865
0.681344
0.624012
0.563679
0.502757
0.444134
0.388487
0.336623
0.2894
0.782691
0.729544
0.67117
0.616079
0.560175
0.502974
0.447541
0.395133
0.346448
0.301692
0.770561
0.721031
0.663219
0.609193
0.556812
0.503296
0.450846
0.401205
0.355216
0.312711
0.758853
0.712621
0.656343
0.603144
0.553502
0.503562
0.454093
0.40689
0.363197
0.322645
0.747795
0.704383
0.650302
0.59817
0.550619
0.503845
0.457272
0.412288
0.370535
0.331631
0.737401
0.696379
0.644849
0.59415
0.548287
0.504162
0.460286
0.417372
0.377277
0.339751
0.727671
0.688695
0.639906
0.590998
0.546617
0.504614
0.463103
0.422095
0.383441
0.347072
0.718673
0.681446
0.635455
0.588605
0.545601
0.505241
0.465679
0.426379
0.389002
0.35362
0.710526
0.674784
0.631503
0.586836
0.545139
0.506013
0.467967
0.430138
0.393923
0.359423
0.703402
0.668923
0.628083
0.585524
0.545042
0.506839
0.469912
0.433303
0.398117
0.364534
0.69745
0.664058
0.625213
0.584474
0.545069
0.507583
0.471484
0.43587
0.401499
0.368487
0.692632
0.660191
0.622822
0.583482
0.544985
0.508101
0.472662
0.437892
0.404359
0.372181
0.688782
0.657133
0.620767
0.582407
0.544646
0.508319
0.473467
0.439442
0.40669
0.375206
0.68558
0.654489
0.618818
0.58118
0.544044
0.50826
0.47396
0.440602
0.40853
0.377678
0.682685
0.651891
0.616818
0.579861
0.543319
0.508051
0.474249
0.441466
0.409977
0.379691
0.680037
0.64933
0.614845
0.578602
0.542637
0.50782
0.474417
0.4421
0.411085
0.381289
0.677796
0.647042
0.613047
0.577444
0.541971
0.507503
0.474394
0.442443
0.411815
0.38244
0.676325
0.64545
0.611706
0.576473
0.541271
0.506988
0.474049
0.442365
0.412046
0.383038
0.675728
0.644805
0.611138
0.575982
0.540783
0.506475
0.47354
0.441961
0.411801
0.383027
)
;

boundaryField
{
    bottom
    {
        type            symmetryPlane;
    }
    right
    {
        type            fixedValue;
        value           uniform 0;
    }
    top
    {
        type            symmetryPlane;
    }
    left
    {
        type            fixedValue;
        value           uniform 1;
    }
    cylinder
    {
        type            zeroGradient;
    }
    defaultFaces
    {
        type            empty;
    }
}


// ************************************************************************* //
