/*--------------------------------*- C++ -*----------------------------------*\
| =========                 |                                                 |
| \\      /  F ield         | OpenFOAM: The Open Source CFD Toolbox           |
|  \\    /   O peration     | Version:  4.1                                   |
|   \\  /    A nd           | Web:      www.OpenFOAM.org                      |
|    \\/     M anipulation  |                                                 |
\*---------------------------------------------------------------------------*/
FoamFile
{
    version     2.0;
    format      ascii;
    class       surfaceScalarField;
    location    "12.9";
    object      phi;
}
// * * * * * * * * * * * * * * * * * * * * * * * * * * * * * * * * * * * * * //

dimensions      [0 3 -1 0 0 0 0];

internalField   nonuniform List<scalar> 
3890
(
0.000344977
0.00139977
-0.00174475
0.00220761
-0.000700114
-0.00116251
0.00612443
-0.00590451
0.00198769
0.0123152
-0.0131155
0.00692478
0.0205866
-0.0212775
0.0130061
0.0304083
-0.0294268
0.0196051
0.0411026
-0.0368707
0.0261764
0.0521211
-0.0432468
0.0322282
0.0629295
-0.048698
0.0378896
-0.0523041
0.0422087
0.0730249
0.000619452
0.000780319
0.00336296
-0.00344362
0.00872188
-0.0112634
0.0165864
-0.0209801
0.0262591
-0.0309502
0.036793
-0.0399607
0.0473433
-0.047421
0.0573593
-0.0532628
0.0663824
-0.057721
-0.0608142
0.0748925
0.00098461
-0.000204291
0.0047689
-0.00722791
0.0115776
-0.0180721
0.0206875
-0.03009
0.0308414
-0.041104
0.0408897
-0.050009
0.0501228
-0.0566541
0.0582752
-0.0614152
0.06542
-0.0648658
-0.0673816
0.0719873
0.00143471
-0.001639
0.00632608
-0.0121193
0.0142994
-0.0260454
0.0238625
-0.0396532
0.0334389
-0.0506804
0.0420611
-0.0586312
0.0494333
-0.0640263
0.0557199
-0.0677018
0.0612609
-0.0704068
-0.0725885
0.0664679
0.00195178
-0.00359078
0.00785205
-0.0180195
0.0164083
-0.0346016
0.0255197
-0.0487646
0.0337316
-0.0588923
0.0405531
-0.0654527
0.0461468
-0.06962
0.0509333
-0.0724883
0.0553249
-0.0747985
-0.0769642
0.0597006
0.00249246
-0.00608325
0.0091045
-0.0246316
0.0175187
-0.0430158
0.0254758
-0.0567217
0.0319944
-0.0654108
0.0370926
-0.0705509
0.0412183
-0.0737457
0.044853
-0.0761229
0.0483503
-0.0782958
-0.0805053
0.0518914
0.00298977
-0.00907302
0.00985719
-0.031499
0.0174875
-0.0506461
0.0239296
-0.0631639
0.0287688
-0.07025
0.0323807
-0.0741628
0.0353127
-0.0766777
0.0379906
-0.0788009
0.0406517
-0.0809568
-0.0832543
0.0434006
0.00336255
-0.0124356
0.00997892
-0.0381154
0.0164069
-0.0570741
0.0212527
-0.0680097
0.0245734
-0.0735707
0.026928
-0.0765174
0.0288434
-0.0785931
0.0306439
-0.0806014
0.0324738
-0.0827867
-0.0851518
0.0343713
0.00353914
-0.0159747
0.00946048
-0.0440367
0.0144974
-0.0621111
0.017822
-0.0713342
0.0198131
-0.0755618
0.0210825
-0.0777867
0.0220773
-0.079588
0.0230225
-0.0815466
0.0239903
-0.0837546
-0.0861568
0.0249954
0.00348231
-0.019457
0.0084106
-0.048965
0.0120163
-0.0657168
0.0139557
-0.0732736
0.0147849
-0.076391
0.0150848
-0.0780866
0.0152051
-0.0797083
0.0152907
-0.0816322
0.0153742
-0.083838
0.0154589
-0.0862416
-0.000445534
0.000445534
-0.0013429
0.000897363
-0.00246424
0.00112134
-0.00368075
0.00121651
-0.00491879
0.00123804
-0.00614031
0.00122152
-0.00733214
0.00119183
-0.00849927
0.00116713
-0.00966277
0.00116351
0.00120193
-0.0108647
-0.00040927
0.000854804
-0.00123067
0.00171876
-0.00224788
0.00213856
-0.00333079
0.00229942
-0.00440147
0.00230872
-0.00541521
0.00223526
-0.00635076
0.00212738
-0.00720609
0.00202246
-0.00799532
0.00195273
0.00196935
-0.00876275
-0.00034512
0.00119992
-0.0010328
0.00240644
-0.00185953
0.00296529
-0.00269682
0.00313671
-0.00346122
0.00307312
-0.00409679
0.00287083
-0.00456693
0.00259752
-0.00485556
0.00231109
-0.00496792
0.00206509
0.0019072
-0.00490576
-0.000269654
0.00146958
-0.000787728
0.00292451
-0.00136488
0.00354244
-0.001875
0.00364683
-0.00222996
0.00342809
-0.00236273
0.0030036
-0.00221739
0.00245218
-0.00174716
0.00184086
-0.000932917
0.00125085
0.000855865
0.000118415
-0.000197784
0.00166736
-0.000531802
0.00325853
-0.000819829
0.00383047
-0.000935777
0.00376278
-0.000786088
0.0032784
-0.000293444
0.00251095
0.000613128
0.00154561
0.00200056
0.000453424
0.00393173
-0.000680322
-0.00167418
0.00646177
-0.000138075
0.00180544
-0.00028181
0.00340226
-0.000239177
0.00378783
0.000126251
0.00339735
0.000923427
0.00248122
0.00224375
0.00119063
0.00416957
-0.000380217
0.00677526
-0.00215226
0.0101335
-0.00403857
-0.0060114
0.0144707
-8.93917e-05
0.00189483
-2.18729e-05
0.00333474
0.000419355
0.00334661
0.00141137
0.00240533
0.00309409
0.00079851
0.00558124
-0.00129652
0.0089561
-0.00375508
0.0132668
-0.00646294
0.018505
-0.00927682
-0.0125935
0.0250872
-4.08925e-05
0.00193572
0.000281976
0.00301187
0.00125293
0.00237565
0.00309856
0.000559705
0.00600349
-0.00210642
0.0100913
-0.0053843
0.0154069
-0.00907075
0.0219026
-0.0129586
0.0294593
-0.0168335
-0.0215118
0.0383775
3.58667e-05
0.00189985
0.000709339
0.0023384
0.00240192
0.000683068
0.00540381
-0.00244219
0.00990968
-0.00661228
0.0159788
-0.0114534
0.0235248
-0.0166168
0.0322954
-0.0217291
0.0421224
-0.0266605
-0.031858
0.0524686
0.000155107
0.001331
0.00400175
0.00848434
0.0148782
0.0230299
0.0325895
0.0430885
0.0543177
0.0646684
-0.0115711
0.000706447
-0.0122683
0.000697175
-0.0129388
0.00067046
-0.013579
0.000640255
-0.0141873
0.000608218
-0.0147614
0.000574165
-0.0152993
0.000537899
-0.0157987
0.000499335
-0.0162573
0.000458605
-0.0166734
0.000416125
-0.017046
0.000372631
-0.0173752
0.000329193
-0.0176624
0.000287221
-0.0179109
0.000248441
-0.0181256
0.000214764
-0.0183136
0.000187941
-0.0184829
0.000169332
-0.0186433
0.000160365
-0.0188052
0.000161896
0.000167183
-0.00934373
0.00128743
-0.00992742
0.00128087
-0.0104998
0.0012428
-0.0110598
0.00120029
-0.0116053
0.00115367
-0.0121339
0.00110277
-0.0126429
0.00104694
-0.0131294
0.000985856
-0.0135904
0.000919556
-0.0140228
0.000848561
-0.0144242
0.000773962
-0.0147925
0.000697506
-0.0151269
0.000621627
-0.0154279
0.000549462
-0.0156979
0.000484728
-0.0159411
0.000431219
-0.016164
0.000392149
-0.0163742
0.000370604
-0.0165818
0.000369537
0.000379274
-0.00527014
0.00165181
-0.00562096
0.00163169
-0.00599775
0.00161958
-0.00638649
0.00158904
-0.00678748
0.00155466
-0.0071995
0.0015148
-0.0076199
0.00146734
-0.0080455
0.00141145
-0.00847281
0.00134686
-0.00889798
0.00127373
-0.00931688
0.00119287
-0.00972532
0.00110595
-0.0101193
0.00101563
-0.0104955
0.000925604
-0.0108514
0.000840701
-0.0111867
0.000766447
-0.0115025
0.000707991
-0.0118021
0.000670227
-0.0120934
0.000660755
0.000677008
0.000176774
0.00159345
7.55405e-05
0.00173293
-3.1522e-05
0.00172664
-0.000164814
0.00172233
-0.000333882
0.00172372
-0.000541182
0.0017221
-0.000784897
0.00171105
-0.00106279
0.00168935
-0.00137264
0.00165671
-0.00171164
0.00161273
-0.00207617
0.0015574
-0.00246186
0.00149164
-0.00286363
0.00141739
-0.00327582
0.0013378
-0.00369246
0.00125734
-0.0041079
0.00118189
-0.00451759
0.00111768
-0.00491756
0.0010702
-0.00530513
0.00104832
0.00106737
0.006746
0.00130922
0.00695384
0.00152509
0.00710453
0.00157595
0.00722809
0.00159878
0.00730825
0.00164356
0.00733913
0.00169122
0.00732133
0.00172885
0.00725534
0.00175534
0.00714051
0.00177154
0.00697642
0.00177681
0.00676356
0.00177026
0.00650336
0.00175184
0.00619827
0.00172249
0.00585194
0.00168413
0.00546947
0.00163981
0.00505725
0.0015941
0.00462227
0.00155266
0.00417166
0.0015208
0.00371747
0.00150252
0.00151191
0.0149174
0.000862517
0.0152605
0.00118206
0.0155609
0.00127548
0.0158536
0.00130613
0.0161136
0.00138359
0.0163322
0.00147254
0.0165109
0.00155022
0.0166485
0.00161772
0.0167413
0.00167874
0.0167853
0.00173283
0.0167772
0.00177836
0.0167144
0.00181463
0.0165951
0.00184181
0.0164184
0.00186081
0.016185
0.00187316
0.0158972
0.00188191
0.0155593
0.00189056
0.0151751
0.00190497
0.0147545
0.00192319
0.00197249
0.0254334
0.000516273
0.0257244
0.000891039
0.0260162
0.000983701
0.0263224
0.000999966
0.026623
0.00108297
0.0269074
0.0011881
0.0271786
0.00127906
0.0274325
0.00136376
0.0276622
0.00144908
0.027861
0.00153403
0.0280231
0.00161624
0.028143
0.00169476
0.0282156
0.00176923
0.0282364
0.00184001
0.0282023
0.00190721
0.0281109
0.00197333
0.0279626
0.00203882
0.0277551
0.00211249
0.0274924
0.00218588
0.002302
0.0384175
0.000476277
0.038538
0.000770586
0.0387387
0.00078301
0.0389827
0.000755881
0.0392351
0.000830595
0.0395073
0.000915948
0.0397955
0.000990847
0.0400888
0.00107047
0.040378
0.00115991
0.040656
0.00125603
0.0409164
0.00135577
0.0411531
0.00145809
0.0413605
0.00156185
0.0415332
0.00166723
0.0416679
0.0017726
0.0417598
0.00188139
0.0418093
0.00198932
0.0418103
0.00211144
0.0417728
0.00222344
0.0024092
0.052352
0.000592876
0.0524861
0.000636441
0.0528116
0.000457509
0.0531041
0.000463424
0.0534057
0.00052898
0.0537431
0.000578541
0.0540963
0.00063763
0.0544506
0.000716183
0.0548006
0.000809893
0.0551433
0.000913315
0.0554758
0.00102335
0.0557946
0.0011392
0.0560977
0.00125878
0.056382
0.00138296
0.0566468
0.00150779
0.0568884
0.00163975
0.0571109
0.00176682
0.0573064
0.00191601
0.0574943
0.00203555
0.00225945
0.0650609
0.000200389
0.0657181
-2.08115e-05
0.0663279
-0.000152305
0.0668927
-0.000101373
0.0674437
-2.199e-05
0.0679789
4.32834e-05
0.0684911
0.000125494
0.0689843
0.00022293
0.0694643
0.00032994
0.0699339
0.000443663
0.0703953
0.000561978
0.0708496
0.000684928
0.0712987
0.000809695
0.0717425
0.000939097
0.0721842
0.00106617
0.0726213
0.00120257
0.073062
0.0013261
0.0734993
0.00147873
0.0739542
0.00158073
0.00178737
0.0901908
0.00102789
-0.0910183
0.0892867
0.000883282
0.0883913
0.000743094
0.0876234
0.000666519
0.0869629
0.000638482
0.0863687
0.00063748
0.085832
0.000662164
0.0853459
0.000709039
0.0849033
0.000772617
0.0844976
0.000849331
0.0841238
0.000935751
0.0837778
0.00103096
0.083457
0.00113053
0.0831586
0.00123745
0.0828825
0.00134226
0.0826263
0.00145874
0.0823928
0.00155963
0.0821808
0.00169075
0.0819942
0.00176731
0.00192652
0.0992007
0.00129257
-0.0994654
0.0988336
0.00125038
0.0983958
0.00118094
0.0979614
0.0011009
0.0975523
0.00104757
0.0971631
0.00102663
0.096793
0.00103231
0.0964434
0.00105864
0.0961146
0.00110141
0.0958059
0.00115799
0.0955163
0.00122539
0.0952446
0.0013027
0.0949898
0.00138533
0.094751
0.00147624
0.0945279
0.00156535
0.0943204
0.00166624
0.0941284
0.00175158
0.0939558
0.00186339
0.0937976
0.00192554
0.00205625
0.105833
0.00156887
-0.106109
0.105622
0.00146137
0.105422
0.00138061
0.105225
0.00129798
0.105038
0.0012347
0.104863
0.0012021
0.104698
0.00119734
0.104542
0.00121385
0.104397
0.0012469
0.104261
0.00129375
0.104135
0.00135151
0.104018
0.00141953
0.103911
0.00149298
0.103812
0.00157517
0.103722
0.00165526
0.103641
0.00174727
0.103569
0.00182334
0.103508
0.00192458
0.103454
0.0019792
0.00209727
0.111314
0.00176075
-0.111506
0.111197
0.00157873
0.111116
0.00146173
0.111043
0.0013705
0.110978
0.00129965
0.110925
0.00125509
0.110885
0.00123745
0.110857
0.0012423
0.110839
0.00126472
0.110831
0.00130182
0.110832
0.00135001
0.110842
0.00140941
0.110861
0.00147404
0.110888
0.00154885
0.110922
0.00162058
0.110963
0.00170623
0.111013
0.00177412
0.111067
0.00186997
0.111128
0.00191802
0.00203091
0.116314
0.0018288
-0.116382
0.116275
0.00161851
0.116261
0.00147569
0.116258
0.00137279
0.116263
0.00129478
0.116278
0.00124041
0.116305
0.00121048
0.116344
0.00120303
0.116395
0.00121359
0.116457
0.0012398
0.11653
0.00127691
0.116613
0.00132638
0.116707
0.00138041
0.116809
0.00144655
0.116922
0.00150822
0.117041
0.00158669
0.11717
0.00164526
0.117305
0.00173553
0.117446
0.00177637
0.00188457
0.121309
0.00182275
-0.121303
0.121316
0.00161166
0.121337
0.00145509
0.121369
0.00134057
0.121409
0.00125482
0.121457
0.00119254
0.121515
0.00115243
0.121584
0.00113383
0.121665
0.0011327
0.121757
0.00114788
0.12186
0.00117343
0.121975
0.00121229
0.1221
0.0012548
0.122236
0.00131103
0.122382
0.00136162
0.122538
0.00143122
0.122703
0.0014798
0.122877
0.00156217
0.123057
0.00159582
0.00169612
0.126483
0.00178714
-0.126448
0.126513
0.00158149
0.12655
0.00141877
0.126595
0.00129556
0.126647
0.00120255
0.126706
0.00113352
0.126773
0.00108507
0.12685
0.00105681
0.126938
0.00104489
0.127037
0.00104939
0.127146
0.00106369
0.127267
0.0010918
0.127399
0.0011229
0.127541
0.00116851
0.127695
0.00120806
0.127859
0.0012674
0.128032
0.00130627
0.128216
0.00137852
0.128406
0.00140554
0.00149463
0.131777
0.00173478
-0.131725
0.131822
0.00153644
0.131868
0.001373
0.131918
0.00124499
0.131975
0.00114642
0.132036
0.00107178
0.132105
0.00101651
0.132182
0.000980055
0.132268
0.000958604
0.132364
0.000953143
0.132471
0.000956975
0.132588
0.000974589
0.132716
0.000994963
0.132855
0.00102977
0.133004
0.00105895
0.133164
0.00110731
0.133333
0.00113723
0.133514
0.00119802
0.1337
0.00121916
0.00129512
0.137006
0.00166217
-0.136933
0.137069
0.00147363
0.137128
0.00131327
0.137189
0.00118399
0.137254
0.00108218
0.137322
0.00100347
0.137395
0.000942942
0.137476
0.000899845
0.137564
0.000870421
0.137661
0.000856132
0.137767
0.000850674
0.137883
0.000858509
0.138009
0.000869219
0.138145
0.000893615
0.138291
0.000913457
0.138447
0.000950882
0.138611
0.000972809
0.138788
0.00102186
0.138969
0.00103788
0.00110028
0.141976
0.00155838
-0.141872
0.142069
0.00138111
0.142155
0.0012264
0.14224
0.00109896
0.142326
0.000996672
0.142413
0.000916025
0.142504
0.000852172
0.1426
0.000804311
0.142701
0.000768835
0.14281
0.000747388
0.142926
0.000734272
0.143051
0.000733656
0.143184
0.000736147
0.143327
0.000751244
0.143477
0.000763048
0.143638
0.000790456
0.143805
0.000805509
0.143983
0.000843631
0.144166
0.000855272
0.000905055
0.146603
0.00140623
-0.146451
0.146742
0.0012414
0.146874
0.00109491
0.147
0.000972644
0.147124
0.000873081
0.147247
0.000793296
0.14737
0.000728645
0.147496
0.0006785
0.147625
0.000639407
0.14776
0.000613166
0.147899
0.000594579
0.148045
0.000587614
0.148198
0.000583799
0.148357
0.000591539
0.148523
0.000596968
0.148698
0.000616216
0.148877
0.00062571
0.149066
0.000654784
0.149259
0.00066285
0.000702159
0.151014
0.00118986
-0.150797
0.151215
0.00104019
0.151404
0.000905565
0.151585
0.000792324
0.151759
0.000699092
0.151928
0.00062355
0.152096
0.000561234
0.152262
0.000511955
0.152429
0.000472239
0.152598
0.000444263
0.15277
0.000422941
0.152945
0.000412472
0.153124
0.000404739
0.153308
0.000407829
0.153496
0.000408902
0.153689
0.000422658
0.153887
0.000428131
0.154091
0.000450917
0.154297
0.00045628
0.000488163
0.155586
0.000910131
-0.155307
0.155847
0.000779811
0.156091
0.000661418
0.156322
0.000561189
0.156543
0.000477867
0.156757
0.000410049
0.156965
0.000353375
0.157168
0.000308359
0.157369
0.000271213
0.157569
0.000244806
0.157768
0.000223673
0.157968
0.000212822
0.158169
0.00020373
0.158371
0.00020515
0.158576
0.000204
0.158784
0.0002152
0.158993
0.00021825
0.159207
0.000237773
0.159422
0.000241313
0.000269027
0.160824
0.000597212
-0.160511
0.161114
0.00048988
0.161384
0.000391194
0.161639
0.000306925
0.16188
0.000236132
0.162112
0.000178672
0.162335
0.000130155
0.162551
9.20751e-05
0.162763
6.00371e-05
0.16297
3.782e-05
0.163174
1.92264e-05
0.163376
1.04769e-05
0.163578
2.11531e-06
0.163779
4.20947e-06
0.16398
2.5877e-06
0.164182
1.35047e-05
0.164385
1.54478e-05
0.164589
3.40044e-05
0.164793
3.64633e-05
6.24157e-05
0.167046
0.000306297
-0.166755
0.167314
0.000222517
0.16756
0.00014442
0.16779
7.68494e-05
0.168007
1.93129e-05
0.168213
-2.69145e-05
0.168409
-6.64422e-05
0.168598
-9.65583e-05
0.16878
-0.000122429
0.168958
-0.000139408
0.169131
-0.000154399
0.169302
-0.000160031
0.169471
-0.000166705
0.169638
-0.000162974
0.169805
-0.000164203
0.169971
-0.000152721
0.170137
-0.00015118
0.170304
-0.000132858
0.170472
-0.000131025
-0.000106135
0.174054
9.00085e-05
-0.173837
0.174249
2.7011e-05
0.174426
-3.22074e-05
0.174587
-8.43601e-05
0.174736
-0.000129546
0.174875
-0.000165576
0.175005
-0.000196411
0.175127
-0.000219255
0.175244
-0.000239297
0.175356
-0.000251511
0.175465
-0.000263039
0.175571
-0.000266026
0.175675
-0.000271025
0.175778
-0.000266218
0.175881
-0.000266985
0.175984
-0.000255625
0.176087
-0.00025434
0.176191
-0.000237118
0.176296
-0.000235736
-0.000212892
0.181103
-3.1248e-05
-0.180982
0.181207
-7.68935e-05
0.181295
-0.000120004
0.181369
-0.000158294
0.181431
-0.000192117
0.181485
-0.000218907
0.18153
-0.000241951
0.181569
-0.000258539
0.181603
-0.000273421
0.181634
-0.000281884
0.181661
-0.000290432
0.181687
-0.000291814
0.181712
-0.000295489
0.181736
-0.000290784
0.18176
-0.000291312
0.181786
-0.000281435
0.181812
-0.000280484
0.181841
-0.000265947
0.18187
-0.000264975
-0.000245963
0.187266
-6.934e-05
-0.187228
0.187289
-0.000100218
0.187298
-0.000128938
0.187294
-0.000154092
0.187278
-0.000176638
0.187254
-0.000194471
0.187222
-0.000209933
0.187184
-0.000220817
0.187141
-0.000230755
0.187096
-0.000236121
0.187047
-0.000241841
0.186998
-0.000242394
0.186947
-0.000244858
0.186897
-0.000241224
0.186848
-0.000241583
0.186801
-0.000234372
0.186754
-0.00023376
0.186711
-0.000223307
0.186669
-0.000222684
-0.000209129
0.191801
-4.76582e-05
-0.191823
0.191766
-6.56416e-05
0.191718
-8.05234e-05
0.191657
-9.28432e-05
0.191584
-0.000103927
0.191502
-0.000112756
0.191413
-0.000120481
0.191318
-0.000125864
0.191218
-0.000130821
0.191115
-0.000133435
0.19101
-0.000136274
0.190904
-0.000136457
0.190797
-0.000137642
0.190691
-0.000135711
0.190585
-0.000135821
0.190483
-0.000132099
0.190381
-0.000131695
0.190284
-0.000126364
0.190187
-0.000125916
-0.000118937
0.194212
-0.194259
0.194146
0.194065
0.193973
0.193869
0.193756
0.193635
0.19351
0.193379
0.193245
0.193109
0.192973
0.192835
0.192699
0.192563
0.192431
0.1923
0.192173
0.192047
0.0899063
0.0144017
-0.0888491
0.090982
0.0239197
0.0920942
0.0332592
0.0931987
0.0422961
0.0943235
0.0507666
0.0953572
0.0586669
0.0960772
0.0657479
0.0965681
0.0714964
0.0941191
0.0773415
0.0761257
0.0927959
0.013457
-0.0918512
0.0938064
0.0229091
0.0949127
0.0321529
0.0960856
0.0411233
0.097268
0.0495842
0.098604
0.0573309
0.0995251
0.0648269
0.100951
0.070071
0.100929
0.0773633
0.077589
0.0959327
0.0126151
-0.0950908
0.0968999
0.0219419
0.0979749
0.0310779
0.099217
0.0398812
0.100424
0.048377
0.101955
0.0558
0.103178
0.0636041
0.104775
0.0684737
0.106167
0.0759717
0.0776464
0.0991772
0.0118462
-0.0984083
0.100144
0.0209747
0.10123
0.0299928
0.102558
0.0385528
0.103875
0.0470603
0.105485
0.0541897
0.107042
0.0620465
0.108577
0.0669392
0.110495
0.0740538
0.0766352
0.102408
0.0111178
-0.10168
0.103405
0.0199774
0.104569
0.0288294
0.106
0.0371216
0.10752
0.0455405
0.109197
0.0525131
0.111033
0.0602098
0.112663
0.0653092
0.114739
0.0719778
0.0749921
0.105513
0.0103978
-0.104793
0.106557
0.0189332
0.107851
0.0275355
0.109412
0.0355613
0.111181
0.0437712
0.113027
0.050667
0.115129
0.0581079
0.117063
0.0633747
0.119289
0.0697525
0.0729774
0.108393
0.00965941
-0.107654
0.1095
0.0178262
0.110947
0.0260882
0.112676
0.0338323
0.114709
0.0417378
0.116845
0.0485315
0.119251
0.0557021
0.12159
0.0610353
0.124098
0.0672448
0.0706275
0.110991
0.00888627
-0.110218
0.112177
0.0166407
0.113778
0.0244873
0.115707
0.0319035
0.118004
0.0394399
0.120485
0.0460505
0.123243
0.0529447
0.12602
0.0582584
0.128954
0.0643104
0.067857
0.113338
0.00807111
-0.112523
0.114609
0.0153702
0.116348
0.0227477
0.118476
0.029776
0.121022
0.0368934
0.123837
0.043236
0.12697
0.0498116
0.130193
0.0550349
0.133642
0.0608621
0.0645654
0.115576
0.0072154
-0.11472
0.116922
0.0140243
0.118773
0.0208972
0.121063
0.0274857
0.123819
0.0341375
0.126912
0.0401426
0.130398
0.0463263
0.134043
0.0513891
0.138007
0.0568987
0.0607001
0.117964
0.00633281
-0.117082
0.119361
0.0126273
0.121284
0.0189743
0.123682
0.0250885
0.126587
0.0312324
0.129882
0.036847
0.133643
0.0425654
0.13764
0.047392
0.142038
0.052501
0.0562874
0.120834
0.00543246
-0.119933
0.122246
0.0112153
0.1242
0.0170203
0.12665
0.0226382
0.129639
0.0282432
0.13306
0.0334265
0.136993
0.0386316
0.141241
0.0431444
0.145942
0.0478003
0.051432
0.124463
0.00456526
-0.123596
0.12586
0.00981812
0.127815
0.0150653
0.130288
0.020165
0.133319
0.0252122
0.136818
0.0299281
0.140847
0.0346018
0.145261
0.0387312
0.150146
0.0429153
0.0462711
0.128924
0.00376577
-0.128124
0.130289
0.00845283
0.13224
0.0131145
0.134744
0.0176602
0.137824
0.0221325
0.141412
0.0263405
0.145535
0.0304784
0.150096
0.0341708
0.15513
0.0378808
0.0408897
0.13395
0.00305147
-0.133235
0.13529
0.00711208
0.137262
0.0111428
0.139843
0.0150787
0.143031
0.0189452
0.146776
0.0225953
0.151074
0.0261798
0.155851
0.0293942
0.161117
0.0326151
0.0352512
0.138986
0.00240779
-0.138343
0.140332
0.00576636
0.14237
0.00910492
0.145086
0.0123625
0.14846
0.0155711
0.152451
0.0186041
0.157042
0.0215892
0.162154
0.024282
0.167799
0.0269702
0.0292132
0.143444
0.00179528
-0.142831
0.144829
0.00438068
0.146974
0.0069606
0.149863
0.00947282
0.153476
0.0119581
0.15777
0.0143107
0.162729
0.0166299
0.168268
0.0187433
0.174402
0.0208353
0.0226339
0.146981
0.00118451
-0.146371
0.14842
0.00294184
0.150678
0.00470309
0.153736
0.0064143
0.157581
0.00811313
0.162167
0.00972471
0.167485
0.0113125
0.173451
0.012777
0.180076
0.0142104
0.0154821
0.149511
0.000583275
-0.148909
0.15098
0.00147205
0.153316
0.00236729
0.156495
0.00323512
0.16051
0.00409842
0.165316
0.00491883
0.170903
0.00572587
0.177202
0.00647729
0.184207
0.00720585
0.00786618
0.150892
-0.150309
0.152364
0.154732
0.157967
0.162065
0.166984
0.17271
0.179187
0.186393
0.0422721
0.051556
-0.045478
-0.0483501
0.0362518
0.0501972
-0.0441769
0.0306451
0.0493081
-0.0437013
0.0253569
0.0489769
-0.0436887
0.0202706
0.0491164
-0.0440302
0.0153181
0.0497083
-0.0447558
0.0104825
0.0506105
-0.0457748
0.0058815
0.0506949
-0.046094
0.00199353
0.0458951
-0.0420071
0.0263544
-0.0243609
0.0404922
0.0575376
-0.0464738
0.0346458
0.0560436
0.0290903
0.0548636
0.0238643
0.0542029
0.0188932
0.0540875
0.0140965
0.054505
0.00945946
0.0552475
0.00513365
0.0550207
0.00162773
0.049401
0.0279821
0.0378
0.0631758
-0.0434382
0.0322453
0.0615982
0.0268955
0.0602135
0.0218342
0.0592641
0.0170444
0.0588773
0.0124689
0.0590805
0.00811115
0.0596053
0.00416413
0.0589678
0.00116037
0.0524048
0.0291425
0.0340256
0.0684315
-0.0392813
0.0288891
0.0667347
0.0239092
0.0651935
0.0191646
0.0640087
0.0146729
0.0633689
0.0104121
0.0633412
0.00642661
0.0635908
0.00297208
0.0624223
0.000591497
0.0547853
0.029734
0.0292454
0.0732262
-0.0340402
0.0246029
0.0713772
0.0201123
0.0696841
0.0158203
0.0683007
0.0117521
0.0674371
0.00791539
0.067178
0.00439977
0.0671065
0.00155097
0.0652711
-8.10685e-05
0.0564174
0.0296529
0.0234885
0.0774305
-0.0276928
0.0194475
0.0754181
0.0155541
0.0735775
0.0118273
0.0720275
0.00829162
0.0709728
0.00498845
0.0704812
0.00205876
0.0700362
-0.000144269
0.0674741
-0.000743336
0.0570164
0.0289096
0.0168727
0.0809189
-0.0203611
0.0135301
0.0787607
0.010321
0.0767866
0.00725198
0.0750965
0.00434093
0.0738839
0.00167866
0.0731434
-0.000521472
0.0722363
-0.00172712
0.0686798
-0.00143149
0.0567208
0.0274781
0.00951555
0.0835881
-0.0121848
0.00695516
0.0813211
0.00451144
0.0792303
0.00218244
0.0774255
-1.83082e-06
0.0760681
-0.00194805
0.0750897
-0.00329893
0.0735872
-0.00350661
0.0688874
-0.00210735
0.0553216
0.0253708
0.00155811
0.085415
-0.00338497
-0.000143986
0.0830232
-0.00176526
0.0808516
-0.00331895
0.0789792
-0.00474666
0.0774958
-0.0058518
0.0761948
-0.00624117
0.0739765
-0.0052961
0.0679424
-0.00271781
0.0527433
0.022653
-0.00679122
0.0059646
-0.00760598
-0.00838664
-0.00911566
-0.00970647
-0.00990268
-0.00919975
-0.00697419
-0.00319593
0.0321324
0.00304291
-0.0351753
0.0289684
0.003164
0.025664
0.00330436
0.0221987
0.00346532
0.0185444
0.00365434
0.0146676
0.00387672
0.0105506
0.00411709
0.00628119
0.00426938
0.00231446
0.00396672
0.00231446
0.0327206
0.00621766
-0.0358954
0.0294402
0.0064444
0.0260346
0.00671001
0.0224828
0.00701709
0.0187563
0.00738085
0.0148205
0.00781256
0.010654
0.00828355
0.00634153
0.00858185
0.00234383
0.00796442
0.0046583
0.0338359
0.0096433
-0.0372615
0.0303337
0.0099466
0.0267347
0.010309
0.0230175
0.0107343
0.0191524
0.011246
0.015103
0.0118619
0.010845
0.0125416
0.00645691
0.0129699
0.00239034
0.012031
0.00704864
0.0353602
0.013412
-0.0391289
0.0315532
0.0137536
0.0276875
0.0141747
0.0237416
0.0146802
0.019685
0.0153025
0.0154794
0.0160676
0.0110957
0.0169252
0.00660493
0.0174608
0.00245024
0.0161857
0.00949888
0.0371313
0.0175814
-0.0413007
0.0329654
0.0179195
0.0287841
0.018356
0.0245677
0.0188966
0.0202853
0.0195849
0.015896
0.0204569
0.0113665
0.0214548
0.0067596
0.0220676
0.00251062
0.0204347
0.0120095
0.038965
0.022168
-0.0435515
0.0344169
0.0224675
0.0298967
0.0228762
0.0253906
0.0234027
0.0208682
0.0241073
0.0162861
0.025039
0.0116071
0.0261338
0.00688757
0.0267871
0.00255594
0.0247663
0.0145654
0.0406489
0.0271738
-0.0456547
0.0357194
0.027397
0.0308715
0.0277241
0.0260925
0.0281818
0.0213442
0.0288555
0.016581
0.0298023
0.0117657
0.030949
0.00695369
0.0315991
0.00256969
0.0291503
0.0171351
0.0420626
0.0325825
-0.0474712
0.0367431
0.0327165
0.0315816
0.0328855
0.0265559
0.0332075
0.0216123
0.0337991
0.0167008
0.0347138
0.0117844
0.0358654
0.00692024
0.0364633
0.0025347
0.0335358
0.0196698
0.0428021
0.0384971
-0.0487167
0.0371744
0.0383442
0.031834
0.0382259
0.0266517
0.0383898
0.021573
0.0388778
0.0165673
0.0397196
0.0116047
0.0408281
0.00674924
0.0413187
0.00243419
0.0378509
0.022104
0.0429307
-0.0499116
0.037098
0.0316226
0.0263236
0.0211713
0.016135
0.0111883
0.00641309
0.00225685
0.0387519
-0.000101641
0.0388527
-0.000100827
0.0389504
-9.76795e-05
0.0390407
-9.03614e-05
0.0391203
-7.9519e-05
0.0391855
-6.52772e-05
0.0392327
-4.72075e-05
0.0392573
-2.45358e-05
0.0392535
3.77494e-06
0.0392201
3.34234e-05
0.03915
7.00825e-05
0.0390361
0.0001139
0.0388702
0.00016587
0.0386429
0.000227354
0.0383428
0.000300067
0.0379567
0.000386103
0.0374686
0.000488135
0.0368593
0.000609261
0.0361054
0.000753861
0.000930149
0.0396088
-0.000204471
0.0397091
-0.00020116
0.0398048
-0.000193397
0.0398927
-0.000178248
0.0399696
-0.000156405
0.040032
-0.000127692
0.040076
-9.11891e-05
0.0400968
-4.53595e-05
0.0400897
1.09298e-05
0.0400519
7.12321e-05
0.0399766
0.000145371
0.0398566
0.00023393
0.0396835
0.000338923
0.0394478
0.000463083
0.039138
0.000609852
0.0387407
0.000783406
0.0382397
0.000989139
0.0376158
0.0012331
0.0368456
0.00152414
0.00188031
0.041294
-0.000299159
0.0413867
-0.000293853
0.0414752
-0.000281852
0.0415557
-0.000258744
0.0416248
-0.000225497
0.0416789
-0.000181784
0.0417138
-0.000126141
0.0417245
-5.60377e-05
0.0417078
2.76305e-05
0.0416587
0.000120327
0.0415706
0.0002335
0.0414359
0.000368544
0.0412463
0.000528532
0.0409918
0.000717592
0.0406608
0.000940925
0.0402394
0.00120476
0.0397112
0.00151731
0.039057
0.00188735
0.0382533
0.00232786
0.00287203
0.0437474
-0.00037567
0.0438218
-0.00036827
0.0438921
-0.000352222
0.0439545
-0.000321143
0.0440051
-0.00027604
0.0440399
-0.000216559
0.0440545
-0.000140744
0.0440436
-4.51929e-05
0.0440066
6.46066e-05
0.0439346
0.0001924
0.0438212
0.000346884
0.0436589
0.000530798
0.043439
0.000748424
0.0431513
0.00100537
0.0427836
0.00130862
0.0423218
0.00166651
0.041749
0.00209008
0.0410453
0.00259108
0.0401886
0.00318454
0.00393179
0.0468871
-0.000417136
0.0469261
-0.000407341
0.0469609
-0.000386984
0.0469875
-0.00034776
0.0470019
-0.000290427
0.0469999
-0.000214526
0.0469769
-0.000117744
0.0469246
7.10504e-06
0.0468491
0.000140057
0.0467354
0.000306094
0.0465778
0.000504527
0.0463686
0.000739983
0.0460988
0.00101819
0.0457577
0.00134647
0.045333
0.0017334
0.0448096
0.00218983
0.0441707
0.00272902
0.043394
0.00336772
0.0424616
0.00411695
0.00509275
0.0506183
-0.000399279
0.0505973
-0.000386387
0.0505709
-0.000360522
0.0505355
-0.00031234
0.050487
-0.000241972
0.0504209
-0.00014841
0.0503294
-2.62978e-05
0.0502229
0.000113668
0.0500792
0.000283684
0.0498965
0.00048881
0.049668
0.000733097
0.0493852
0.00102277
0.049039
0.00136431
0.048618
0.00176752
0.0481098
0.00224165
0.0474976
0.00280198
0.0467656
0.00346101
0.0458865
0.00424684
0.0448519
0.00515158
0.0063931
0.0548438
-0.000289165
0.0547293
-0.000271898
0.0546073
-0.000238547
0.0544758
-0.000180838
0.0543301
-9.6232e-05
0.0541631
1.85786e-05
0.0539834
0.000153442
0.0537738
0.000323251
0.0535292
0.000528308
0.0532438
0.000774174
0.0529109
0.00106599
0.0525213
0.00141239
0.0520663
0.00181931
0.0515327
0.00230114
0.05091
0.00286427
0.0501775
0.00353455
0.0493239
0.00431454
0.0483068
0.00526402
0.0471267
0.00633163
0.00786507
0.0594752
-4.2384e-05
0.0592231
-1.98105e-05
0.0589606
2.40014e-05
0.0586886
9.12007e-05
0.0584051
0.000187238
0.0581087
0.000314944
0.0577865
0.000475667
0.0574353
0.000674478
0.0570493
0.000914282
0.0566212
0.00120232
0.0561444
0.00154276
0.0556082
0.00194856
0.0550055
0.00242205
0.054319
0.00298755
0.0535436
0.00363971
0.0526487
0.00442941
0.05164
0.00532329
0.0504507
0.00645337
0.0491297
0.00765255
0.00952355
0.0644397
0.000383623
0.0639983
0.000421533
0.0635479
0.00047444
0.06309
0.000549109
0.0626221
0.000655154
0.0621375
0.000799475
0.0616295
0.00098368
0.0610923
0.00121169
0.060521
0.00148564
0.0599071
0.00181617
0.0592453
0.00220454
0.0585224
0.00267146
0.057735
0.00320949
0.0568581
0.00386445
0.0558983
0.00459953
0.0547975
0.00553015
0.0536015
0.00651929
0.05216
0.00789487
0.0506674
0.00914518
0.0114742
0.0697175
0.00110815
0.0690153
0.00112379
0.068319
0.00117067
0.0676225
0.00124569
0.0669183
0.00135928
0.0661979
0.00151988
0.0654553
0.00172631
0.0646848
0.00198214
0.0638832
0.00228723
0.0630417
0.00265772
0.062157
0.00308922
0.061214
0.00361443
0.0602164
0.00420716
0.0591338
0.00494704
0.0579951
0.00573824
0.056722
0.00680328
0.0554338
0.00780748
0.0538512
0.00947746
0.052392
0.0106043
0.0139546
0.06955
0.00113756
0.0695352
0.00113857
0.069531
0.00117489
0.0695374
0.00123928
0.0695481
0.00134856
0.0695576
0.00151042
0.0695672
0.00171666
0.0695792
0.0019702
0.0695985
0.00226791
0.0696252
0.00263101
0.0696685
0.00304588
0.0697265
0.00355651
0.0698217
0.00411196
0.0699433
0.00482535
0.0701474
0.00553422
0.0703928
0.00655787
0.0708274
0.00737283
0.0713727
0.00893218
0.0724953
0.00948171
0.0119633
0.0744867
0.0750499
0.00109833
0.0750429
0.00114557
0.0750542
0.0011636