/*--------------------------------*- C++ -*----------------------------------*\
| =========                 |                                                 |
| \\      /  F ield         | OpenFOAM: The Open Source CFD Toolbox           |
|  \\    /   O peration     | Version:  4.1                                   |
|   \\  /    A nd           | Web:      www.OpenFOAM.org                      |
|    \\/     M anipulation  |                                                 |
\*---------------------------------------------------------------------------*/
FoamFile
{
    version     2.0;
    format      ascii;
    class       volVectorField;
    location    "12.9";
    object      U;
}
// * * * * * * * * * * * * * * * * * * * * * * * * * * * * * * * * * * * * * //

dimensions      [0 1 -1 0 0 0 0];

internalField   nonuniform List<vector> 
2000
(
(-0.0243686 0.0217511 9.51062e-22)
(0.0066103 0.0195481 0)
(0.104535 0.00605125 -3.49065e-21)
(0.254153 -0.00909876 -2.79195e-21)
(0.439285 -0.0198302 5.31787e-21)
(0.6401 -0.0241634 1.05301e-20)
(0.838903 -0.0218642 -3.33651e-21)
(1.01782 -0.0172883 0)
(1.18891 -0.00549457 4.18235e-21)
(1.29501 0.00161876 0)
(-0.0177221 0.0152582 -3.46109e-22)
(0.0483568 0.00177296 -7.16179e-22)
(0.198849 -0.0143716 1.83759e-22)
(0.406189 -0.0255799 4.22036e-21)
(0.63939 -0.0280863 -7.1326e-22)
(0.86826 -0.0228895 -3.77831e-21)
(1.07191 -0.0128701 2.84028e-21)
(1.24038 -0.00261232 3.81037e-21)
(1.37768 0.0101003 -4.18213e-21)
(1.46065 0.010886 -9.17314e-21)
(-0.00448287 0.0070753 1.67888e-21)
(0.111029 -0.0170182 -1.57256e-21)
(0.325327 -0.0309833 9.3434e-24)
(0.589302 -0.0327416 -1.17622e-21)
(0.853948 -0.0239784 -1.95649e-21)
(1.08489 -0.00975283 -2.70159e-21)
(1.26805 0.00503388 -3.31849e-21)
(1.40425 0.0167909 -3.81028e-21)
(1.50295 0.0258766 -4.4274e-21)
(1.57265 0.0267905 4.85664e-21)
(0.0174861 -0.00223852 -6.07467e-22)
(0.197593 -0.0337254 -2.75489e-21)
(0.480505 -0.0388527 0)
(0.786934 -0.0270177 -1.28641e-21)
(1.0565 -0.00757679 1.68416e-24)
(1.26386 0.0118014 0)
(1.41049 0.0268282 0)
(1.51026 0.0359039 0)
(1.5818 0.0414363 4.42757e-21)
(1.63083 0.0397311 -1.03714e-20)
(0.0500905 -0.0114384 1.02427e-20)
(0.308074 -0.0439105 -9.41607e-23)
(0.653307 -0.0337667 2.58363e-21)
(0.97727 -0.00799897 9.17101e-23)
(1.22581 0.0179515 1.36167e-22)
(1.3949 0.0374648 -8.52581e-22)
(1.50377 0.0491356 0)
(1.576 0.0544043 -2.26154e-21)
(1.62956 0.0559501 1.38166e-20)
(1.6755 0.0521903 -1.90232e-20)
(0.0944278 -0.0186276 -1.84029e-20)
(0.43788 -0.0428848 1.46846e-21)
(0.827206 -0.0140613 -4.9682e-21)
(1.14207 0.0219459 3.52752e-21)
(1.35359 0.0489959 5.1389e-22)
(1.48274 0.0648207 2.42317e-22)
(1.56162 0.0717015 0)
(1.61608 0.0728858 2.2617e-21)
(1.66226 0.0710522 -2.73746e-21)
(1.70665 0.0665655 -1.48391e-20)
(0.150287 -0.021425 0)
(0.577625 -0.0272716 0)
(0.986154 0.019146 -2.95305e-21)
(1.2723 0.059686 2.74908e-21)
(1.44216 0.0832991 4.62723e-22)
(1.53716 0.0933253 -4.3443e-22)
(1.59513 0.0949461 -5.2503e-21)
(1.63997 0.0922295 4.96273e-21)
(1.68302 0.08756 7.6726e-21)
(1.72822 0.0821055 -3.65691e-21)
(0.215573 -0.0174199 4.85813e-21)
(0.715202 0.0037633 0)
(1.11947 0.0632352 -1.05022e-21)
(1.36689 0.102665 3.86103e-21)
(1.49778 0.11971 -6.13765e-22)
(1.56657 0.122892 0)
(1.61134 0.119222 0)
(1.6515 0.112753 0)
(1.69415 0.105513 9.3547e-21)
(1.74037 0.0990515 -8.89212e-21)
(0.28627 -0.00481814 -2.63896e-21)
(0.839248 0.0485675 -3.07592e-22)
(1.22236 0.115249 -2.1175e-21)
(1.42868 0.14897 2.27863e-22)
(1.52661 0.157477 2.87911e-22)
(1.57677 0.153408 -8.37862e-22)
(1.61392 0.144535 0)
(1.65236 0.134438 1.34297e-21)
(1.69542 0.124836 7.2607e-21)
(1.74248 0.116721 -5.47075e-21)
(0.35703 0.0171065 0)
(0.941666 0.103977 -1.77092e-21)
(1.29392 0.172297 0)
(1.46165 0.197066 -3.39248e-22)
(1.53359 0.195942 -3.00257e-22)
(1.5713 0.184548 7.22717e-22)
(1.60451 0.170568 0)
(1.64271 0.156893 -1.3431e-21)
(1.68652 0.1449 -1.50493e-21)
(1.73437 0.134556 -1.86141e-21)
(-0.00445395 0.0043576 0)
(-0.0184698 0.00841703 8.34982e-22)
(-0.0388372 0.00991884 0)
(-0.0586753 0.0101453 1.03914e-21)
(-0.076392 0.0097264 3.14681e-22)
(-0.0917178 0.00903626 -5.91442e-22)
(-0.104751 0.00832194 5.5699e-22)
(-0.115821 0.00775241 -5.15665e-22)
(-0.125428 0.00746329 -4.84414e-24)
(-0.134389 0.00759027 -4.54804e-22)
(-0.00544025 0.0126593 2.70136e-21)
(-0.0196501 0.0244843 -1.67073e-21)
(-0.0388555 0.0288678 1.46471e-21)
(-0.0568428 0.0294717 -6.88818e-22)
(-0.0722437 0.0281331 -3.13781e-21)
(-0.0848441 0.0259507 1.17873e-21)
(-0.09476 0.0236586 0)
(-0.102298 0.0217822 5.13939e-22)
(-0.107846 0.020747 4.82106e-22)
(-0.11246 0.0209892 0)
(-0.00731622 0.0197996 -1.80248e-21)
(-0.0219492 0.0383961 0)
(-0.0390014 0.0452617 -4.3308e-21)
(-0.053514 0.046009 5.31303e-21)
(-0.0645271 0.0435276 -1.2262e-21)
(-0.0719588 0.0395529 0)
(-0.0759762 0.0352628 0)
(-0.0769057 0.0315623 0)
(-0.0748976 0.0292447 -3.88776e-21)
(-0.070793 0.0292145 3.69494e-21)
(-0.00989022 0.0252956 0)
(-0.0251974 0.0491343 2.97788e-21)
(-0.0393311 0.0577649 -5.50195e-21)
(-0.048982 0.0582573 2.55399e-21)
(-0.053778 0.0543258 -2.39083e-21)
(-0.053865 0.0481873 6.76115e-21)
(-0.0495025 0.041333 4.25843e-23)
(-0.041164 0.0349692 -4.06249e-21)
(-0.0289293 0.0304885 -4.01701e-21)
(-0.0114076 0.0304809 5.80693e-21)
(-0.0129498 0.0290121 -3.16036e-21)
(-0.0290569 0.0561384 5.48024e-21)
(-0.0395253 0.0654925 -1.01991e-22)
(-0.0428726 0.0651655 5.31019e-23)
(-0.0394447 0.0594649 -2.38421e-21)
(-0.0297165 0.0509121 6.53348e-21)
(-0.0141045 0.041122 0)
(0.00683349 0.0314149 2.0714e-21)
(0.0333181 0.0238188 -2.06653e-21)
(0.0672166 0.0228283 7.87673e-21)
(-0.0162961 0.0310808 -1.60932e-22)
(-0.0329241 0.0592474 -5.2156e-21)
(-0.0385323 0.0679754 -2.49701e-21)
(-0.0334526 0.0660904 -2.09749e-21)
(-0.0187747 0.0583252 -2.25912e-21)
(0.00466194 0.0474097 -2.17392e-21)
(0.0362027 0.0349632 0)
(0.074908 0.0221311 -2.07128e-21)
(0.120499 0.0107503 -6.73003e-21)
(0.180499 0.00787182 1.70327e-21)
(-0.0197294 0.0317525 2.42505e-23)
(-0.0357785 0.05852 -2.24754e-21)
(-0.0342423 0.0650738 0)
(-0.0170992 0.06072 4.73199e-21)
(0.0138583 0.050599 -4.14712e-21)
(0.0573641 0.0376748 0)
(0.11231 0.0236602 0)
(0.176965 0.00955982 0)
(0.247415 -0.00465293 4.30976e-21)
(0.346479 -0.00805218 8.36757e-21)
(-0.022984 0.0312286 2.02086e-21)
(-0.036021 0.0541181 -1.893e-21)
(-0.0231733 0.0568658 -3.67411e-21)
(0.0119595 0.0491286 3.48012e-22)
(0.0669063 0.0365235 -3.93309e-21)
(0.13944 0.0222753 -4.02554e-21)
(0.227079 0.00834538 -4.12575e-21)
(0.326652 -0.00377779 -4.25248e-21)
(0.426623 -0.0178948 -4.30927e-21)
(0.573638 -0.0175178 4.85527e-21)
(-0.0255185 0.0295039 3.81888e-21)
(-0.031346 0.0461308 1.9421e-21)
(-0.000455687 0.0436777 7.21492e-21)
(0.0614626 0.0321461 3.80666e-21)
(0.150553 0.017619 2.92778e-22)
(0.262072 0.00353957 4.33034e-21)
(0.390217 -0.00802069 -3.8084e-21)
(0.528068 -0.0152881 4.25197e-21)
(0.659691 -0.0246355 -4.32336e-21)
(0.84087 -0.0160883 9.17575e-21)
(-0.0264027 0.0264323 -2.25705e-21)
(-0.0184756 0.0345679 0)
(0.039949 0.0262627 -3.05133e-21)
(0.139891 0.0116659 3.79704e-23)
(0.273712 -0.0028045 4.43347e-22)
(0.431028 -0.013872 -4.08409e-21)
(0.60057 -0.0197928 1.1493e-20)
(0.768302 -0.0211325 0)
(0.929703 -0.020385 4.32278e-21)
(1.10047 -0.00489434 0)
(-0.143518 0.00804258 0)
(-0.153376 0.00795888 4.13216e-22)
(-0.163 0.00768972 -8.16727e-22)
(-0.1723 0.00738215 3.53801e-22)
(-0.181289 0.00705443 0)
(-0.18994 0.00670502 -3.55923e-22)
(-0.198217 0.00633211 3.57687e-22)
(-0.206084 0.00593525 0)
(-0.213504 0.00551646 0)
(-0.220444 0.00508085 -3.57891e-23)
(-0.226875 0.0046369 0)
(-0.232784 0.0041965 0)
(-0.238173 0.0037749 0)
(-0.243065 0.00339018 0)
(-0.2475 0.00306161 3.5364e-23)
(-0.251533 0.00280644 -3.55472e-23)
(-0.255298 0.00263835 0)
(-0.259123 0.00257005 6.31662e-24)
(-0.263218 0.00259974 -6.34984e-24)
(-0.266326 0.00265866 0)
(-0.118542 0.0224363 0)
(-0.126841 0.0222362 -1.05476e-22)
(-0.134882 0.0216134 0)
(-0.142699 0.0208802 -1.50843e-21)
(-0.150419 0.0200796 1.46839e-21)
(-0.158018 0.0192095 -9.27206e-23)
(-0.165452 0.0182637 6.77906e-22)
(-0.172682 0.0172389 -1.40181e-21)
(-0.179668 0.0161382 1.15603e-21)
(-0.186366 0.0149734 -6.33346e-22)
(-0.192738 0.0137656 -4.98621e-22)
(-0.198749 0.0125464 8.88531e-22)
(-0.204377 0.0113577 -4.49741e-22)
(-0.209617 0.0102511 -2.16738e-22)
(-0.214475 0.00928466 1.7088e-22)
(-0.218966 0.00851421 -3.24897e-23)
(-0.223173 0.00798579 -2.51095e-23)
(-0.227397 0.00774006 -2.5555e-23)
(-0.231934 0.00778827 2.56788e-23)
(-0.235536 0.00796748 -1.92707e-24)
(-0.0714347 0.0322455 1.07931e-22)
(-0.0769444 0.0317864 1.05661e-22)
(-0.0819074 0.0312957 1.05468e-22)
(-0.0868275 0.0305949 0)
(-0.0919605 0.0297841 1.72138e-21)
(-0.0973081 0.0288574 -1.34367e-21)
(-0.102829 0.0277982 0)
(-0.108488 0.0265967 1.69054e-22)
(-0.114247 0.0252509 7.78754e-23)
(-0.120064 0.0237693 -9.7011e-22)
(-0.125893 0.0221742 1.0433e-22)
(-0.131684 0.020504 1.1427e-21)
(-0.137387 0.0188144 5.51184e-23)
(-0.142959 0.017179 4.637e-23)
(-0.148356 0.0156882 4.09135e-23)
(-0.153531 0.0144388 -8.34793e-23)
(-0.158474 0.0135185 8.17601e-23)
(-0.163402 0.0130097 8.56827e-23)
(-0.168709 0.0129912 1.49663e-23)
(-0.173228 0.0133206 -1.80976e-24)
(-0.00498075 0.0339956 3.36442e-21)
(-0.00767489 0.0344783 -3.01644e-23)
(-0.00828341 0.0345079 -1.95099e-22)
(-0.0094382 0.0341995 -3.38535e-21)
(-0.0109721 0.0338846 -3.05725e-22)
(-0.0130113 0.0334635 -9.51127e-23)
(-0.0155345 0.0328686 2.67844e-21)
(-0.0185176 0.0320795 -1.61224e-21)
(-0.0219468 0.0310883 -1.35399e-21)
(-0.0258046 0.0298918 1.24323e-21)
(-0.0300645 0.0284996 -1.0692e-22)
(-0.0346896 0.0269396 -1.25208e-21)
(-0.0396333 0.0252605 -5.466e-23)
(-0.0448404 0.0235345 -4.62237e-22)
(-0.0502446 0.0218595 3.21306e-22)
(-0.0557567 0.0203552 2.41438e-22)
(-0.0612715 0.0191433 -2.1258e-22)
(-0.066846 0.0183443 0)
(-0.0729191 0.0181294 -3.06167e-23)
(-0.078729 0.018546 -1.86125e-24)
(0.0818855 0.0276834 -7.66067e-21)
(0.0836439 0.0300647 3.34763e-21)
(0.0852477 0.0304854 -3.58092e-21)
(0.0876891 0.0307934 0)
(0.0898621 0.031284 2.06582e-22)
(0.0913328 0.03173 3.18391e-21)
(0.0921588 0.0319897 3.00054e-23)
(0.0923962 0.0320384 -1.77147e-22)
(0.0920296 0.0318732 -2.86176e-21)
(0.0910277 0.0314812 -1.55682e-22)
(0.0893711 0.0308543 0)
(0.0870532 0.0300011 1.29092e-22)
(0.0840782 0.0289501 0)
(0.0804644 0.0277509 1.00273e-22)
(0.0762481 0.0264779 0)
(0.0714939 0.0252349 0)
(0.0663208 0.02414 -5.43594e-23)
(0.0608154 0.0233037 6.24387e-23)
(0.0546263 0.0228752 -5.50724e-23)
(0.0477144 0.0231452 1.35828e-23)
(0.201015 0.0161884 0)
(0.204935 0.0198489 2.28746e-22)
(0.206889 0.0208867 7.42422e-21)
(0.210801 0.0218064 -7.18706e-21)
(0.215117 0.0230896 2.30781e-22)
(0.218823 0.0243931 0)
(0.221946 0.0255065 3.23316e-21)
(0.224624 0.0264294 -6.08728e-21)
(0.226831 0.0271847 3.25159e-21)
(0.228478 0.027758 1.80397e-22)
(0.229494 0.0281281 1.66651e-22)
(0.229821 0.0282891 1.51931e-22)
(0.229412 0.0282512 0)
(0.228224 0.0280406 -7.21408e-22)
(0.226233 0.0276997 1.65254e-21)
(0.223435 0.027298 -7.08077e-22)
(0.219877 0.0269219 6.73435e-23)
(0.215625 0.0266653 4.8517e-23)
(0.210526 0.026547 -1.63074e-23)
(0.203645 0.0269721 1.64216e-23)
(0.368173 0.00322012 -8.69407e-21)
(0.371362 0.00820189 0)
(0.370621 0.00940201 2.46794e-22)
(0.37287 0.0106256 -4.8601e-22)
(0.376577 0.0125037 -4.74163e-22)
(0.380088 0.014369 -2.35794e-22)
(0.383292 0.0159847 -2.27608e-22)
(0.386408 0.0174577 3.07875e-21)
(0.389401 0.0188559 -3.67348e-21)
(0.392127 0.020163 -3.24302e-21)
(0.394472 0.0213513 2.69958e-21)
(0.396349 0.0224108 -3.14643e-22)
(0.397677 0.023342 1.06384e-21)
(0.398371 0.0241568 -2.52489e-22)
(0.398369 0.0248718 -1.13966e-21)
(0.397598 0.0255334 -9.4758e-23)
(0.396069 0.0261802 1.01564e-22)
(0.393669 0.026933 -1.2596e-22)
(0.390764 0.0277078 -1.96701e-22)
(0.385089 0.0290295 -1.01823e-23)
(0.589871 -0.00475777 0)
(0.589689 6.149e-05 7.92031e-21)
(0.584621 0.000158462 -8.1333e-21)
(0.583273 0.00119812 2.49588e-22)
(0.584242 0.0032958 4.98475e-22)
(0.585414 0.00519691 2.35588e-22)
(0.586652 0.00681145 4.67282e-22)
(0.588179 0.008409 0)
(0.589904 0.0100676 2.05002e-22)
(0.591635 0.011748 1.91893e-22)
(0.593253 0.0134127 1.92187e-22)
(0.594674 0.0150496 3.38904e-22)
(0.59583 0.0166481 0)
(0.596622 0.0182134 0)
(0.597015 0.019737 1.11074e-22)
(0.596869 0.0212662 9.02769e-22)
(0.596318 0.0227767 -6.30474e-22)
(0.594895 0.0244492 6.05849e-23)
(0.593726 0.0260454 1.16818e-22)
(0.589635 0.0285398 -3.61311e-23)
(0.848477 -0.00200308 -9.54915e-21)
(0.845334 0.000373959 0)
(0.838802 -0.00185706 0)
(0.835764 -0.00170533 8.4779e-21)
(0.834442 -0.000452245 -3.99684e-22)
(0.833137 0.000582879 -1.625e-20)
(0.831928 0.00159191 7.73964e-21)
(0.831 0.0028323 0)
(0.83023 0.00429828 0)
(0.829469 0.00592288 0)
(0.828672 0.00766321 -8.78614e-23)
(0.82781 0.00950089 -2.67483e-22)
(0.826895 0.0114007 -2.47697e-21)
(0.825836 0.0133605 2.38435e-21)
(0.824725 0.0153305 -9.2999e-22)
(0.823299 0.0173782 8.22973e-22)
(0.822011 0.0193746 0)
(0.819924 0.0216393 -2.61768e-23)
(0.818909 0.0235203 -3.64457e-23)
(0.815297 0.0268337 0)
(1.11461 0.00114239 1.30302e-22)
(1.11587 -0.00410518 8.34581e-21)
(1.11372 -0.00670676 -8.25906e-21)
(1.11183 -0.00547321 0)
(1.10903 -0.00372993 -8.52381e-21)
(1.10517 -0.00215419 1.67859e-20)
(1.10086 -0.000453606 -8.26451e-21)
(1.0965 0.00143602 0)
(1.09216 0.00342683 -3.68494e-21)
(1.08784 0.00546242 7.10373e-21)
(1.08361 0.00752107 -3.52159e-21)
(1.07948 0.00960796 9.20691e-23)
(1.07557 0.01169 0)
(1.07173 0.0137979 2.38173e-21)
(1.06824 0.0158497 -3.27263e-21)
(1.06464 0.0179885 9.77378e-22)
(1.06177 0.019939 6.25563e-22)
(1.0582 0.0222618 -4.36177e-22)
(1.05643 0.0238424 -2.13124e-22)
(1.05244 0.0269832 0)
(1.40209 0.00851217 0)
(1.38549 0.004731 0)
(1.37306 0.00330369 0)
(1.36135 0.00320677 0)
(1.3504 0.0034991 0)
(1.34052 0.00411501 0)
(1.33168 0.00505424 0)
(1.32377 0.00625103 0)
(1.31663 0.00763153 0)
(1.3101 0.00915914 0)
(1.30411 0.0107955 0)
(1.29852 0.0125356 0)
(1.29343 0.0143206 0)
(1.28855 0.0161997 0)
(1.28428 0.0180394 0)
(1.27991 0.0200494 0)
(1.27655 0.0218208 0)
(1.27244 0.0240789 0)
(1.27039 0.0254651 0)
(1.26611 0.0283834 0)
(1.53821 0.0187216 0)
(1.53099 0.0184994 0)
(1.5249 0.0172984 0)
(1.51874 0.0158903 0)
(1.51235 0.0149032 0)
(1.50606 0.0144154 0)
(1.50009 0.0143916 0)
(1.49449 0.0147438 0)
(1.48926 0.0153878 0)
(1.48433 0.016272 0)
(1.47974 0.0173426 0)
(1.47536 0.0185818 0)
(1.47135 0.0199139 0)
(1.46744 0.0213832 0)
(1.46403 0.0228319 0)
(1.46045 0.0244754 0)
(1.45777 0.0258812 0)
(1.45431 0.0277386 0)
(1.4527 0.0288025 0)
(1.44895 0.031048 0)
(1.63922 0.02306 0)
(1.63553 0.0215649 0)
(1.63218 0.0203663 0)
(1.62916 0.0191698 0)
(1.62628 0.0182893 0)
(1.6235 0.0178721 0)
(1.62084 0.017881 0)
(1.61834 0.0182171 0)
(1.61601 0.0188037 0)
(1.61384 0.0195962 0)
(1.61182 0.0205521 0)
(1.60993 0.021661 0)
(1.60822 0.0228534 0)
(1.60658 0.0241759 0)
(1.60519 0.0254701 0)
(1.60376 0.0269446 0)
(1.60275 0.0281817 0)
(1.60146 0.0298104 0)
(1.60093 0.0307144 0)
(1.59965 0.0325925 0)
(1.72277 0.0263743 0)
(1.7215 0.0239081 0)
(1.71975 0.0222408 0)
(1.71824 0.0209082 0)
(1.71712 0.019912 0)
(1.71627 0.0193302 0)
(1.71558 0.0191605 0)
(1.71506 0.0193325 0)
(1.71468 0.019773 0)
(1.7145 0.0204328 0)
(1.71442 0.0212616 0)
(1.71455 0.0222537 0)
(1.71472 0.0233288 0)
(1.71515 0.0245481 0)
(1.71552 0.025729 0)
(1.71625 0.027107 0)
(1.71674 0.0282266 0)
(1.71785 0.0297534 0)
(1.71828 0.0305492 0)
(1.71994 0.0323196 0)
(1.79924 0.0281797 0)
(1.79953 0.0251389 0)
(1.79899 0.0230021 0)
(1.79848 0.0214394 0)
(1.79832 0.0202866 0)
(1.79852 0.019522 0)
(1.79887 0.0191429 0)
(1.79944 0.0191104 0)
(1.80009 0.0193591 0)
(1.80101 0.0198467 0)
(1.80198 0.0205071 0)
(1.8033 0.0213505 0)
(1.80451 0.0222712 0)
(1.80624 0.0233659 0)
(1.8076 0.024403 0)
(1.80982 0.0256803 0)
(1.81115 0.0266637 0)
(1.81402 0.0281128 0)
(1.81497 0.0288001 0)
(1.81885 0.0305174 0)
(1.8759 0.0285721 0)
(1.87701 0.0252858 0)
(1.87727 0.0228651 0)
(1.87737 0.0211126 0)
(1.8777 0.0198269 0)
(1.87838 0.0189225 0)
(1.87921 0.0183732 0)
(1.88028 0.0181598 0)
(1.88137 0.0182227 0)
(1.88279 0.0185373 0)
(1.88416 0.0190189 0)
(1.88602 0.0197013 0)
(1.88764 0.0204472 0)
(1.88999 0.0213962 0)
(1.89172 0.0222653 0)
(1.89468 0.0234168 0)
(1.8963 0.0242464 0)
(1.9001 0.0255901 0)
(1.90122 0.026165 0)
(1.90628 0.0277876 0)
(1.95558 0.0281239 0)
(1.95707 0.0248528 0)
(1.95776 0.0223289 0)
(1.95818 0.0204482 0)
(1.95869 0.0190469 0)
(1.95952 0.0180265 0)
(1.96047 0.0173365 0)
(1.96169 0.0169656 0)
(1.96288 0.0168555 0)
(1.96444 0.0170015 0)
(1.96587 0.0173052 0)
(1.96787 0.0178213 0)
(1.96952 0.0183879 0)
(1.97205 0.0191761 0)
(1.97379 0.0198712 0)
(1.97699 0.0208716 0)
(1.9786 0.021546 0)
(1.9827 0.0227468 0)
(1.98379 0.023214 0)
(1.98923 0.0246852 0)
(2.03731 0.0273391 0)
(2.03899 0.0242025 0)
(2.03991 0.0216693 0)
(2.04052 0.019708 0)
(2.04111 0.0182094 0)
(2.04198 0.0170883 0)
(2.04293 0.0162786 0)
(2.04417 0.0157701 0)
(2.04533 0.0155028 0)
(2.04688 0.0154881 0)
(2.04825 0.0156218 0)
(2.05023 0.0159717 0)
(2.05178 0.0163651 0)
(2.0543 0.0169853 0)
(2.05592 0.0175128 0)
(2.05912 0.0183458 0)
(2.0606 0.0188743 0)
(2.0647 0.0199043 0)
(2.06569 0.0202743 0)
(2.0711 0.0215532 0)
(2.1181 0.0263756 0)
(2.11996 0.0233928 0)
(2.12113 0.0208906 0)
(2.12199 0.0188896 0)
(2.12274 0.017323 0)
(2.12373 0.0161227 0)
(2.12474 0.0152161 0)
(2.12605 0.0145914 0)
(2.12723 0.014188 0)
(2.12883 0.0140264 0)
(2.13017 0.0140054 0)
(2.13217 0.014196 0)
(2.13367 0.0144299 0)
(2.13618 0.0148833 0)
(2.13772 0.015257 0)
(2.14089 0.0159172 0)
(2.14228 0.0163136 0)
(2.14634 0.0171607 0)
(2.14724 0.0174451 0)
(2.15255 0.0185134 0)
(2.19483 0.0250924 0)
(2.19703 0.0222647 0)
(2.19863 0.0198236 0)
(2.19993 0.0178255 0)
(2.20105 0.0162298 0)
(2.20237 0.0149811 0)
(2.20365 0.0140057 0)
(2.20521 0.0132907 0)
(2.2066 0.0127776 0)
(2.20841 0.0124904 0)
(2.2099 0.0123364 0)
(2.21207 0.0123832 0)
(2.21366 0.0124769 0)
(2.21631 0.0127748 0)
(2.21789 0.0130125 0)
(2.22118 0.0135073 0)
(2.22257 0.0137876 0)
(2.22672 0.0144557 0)
(2.2276 0.0146658 0)
(2.23296 0.0155269 0)
(2.26612 0.0231955 0)
(2.26892 0.0205441 0)
(2.27121 0.0182025 0)
(2.27322 0.0162544 0)
(2.27499 0.0146751 0)
(2.2769 0.0134171 0)
(2.27868 0.0124084 0)
(2.28073 0.0116367 0)
(2.28255 0.011047 0)
(2.2848 0.0106651 0)
(2.28664 0.0104076 0)
(2.28919 0.010337 0)
(2.29105 0.0103163 0)
(2.29403 0.0104822 0)
(2.29581 0.0106067 0)
(2.29939 0.0109575 0)
(2.30091 0.0111402 0)
(2.30532 0.0116502 0)
(2.30627 0.0117977 0)
(2.31187 0.0124753 0)
(2.334 0.0203713 0)
(2.33759 0.0179402 0)
(2.34076 0.0157508 0)
(2.34369 0.013908 0)
(2.34631 0.012397 0)
(2.34899 0.0111782 0)
(2.35146 0.0101809 0)
(2.35417 0.00939706 0)
(2.35658 0.00877327 0)
(2.3594 0.00833914 0)
(2.36174 0.00801685 0)
(2.36479 0.00786805 0)
(2.36704 0.00776681 0)
(2.37046 0.00783768 0)
(2.37254 0.0078778 0)
(2.37651 0.00812075 0)
(2.37823 0.00822825 0)
(2.38299 0.00861733 0)
(2.38405 0.00871536 0)
(2.38999 0.00925131 0)
(2.40442 0.0164582 0)
(2.40875 0.0143055 0)
(2.41275 0.0123358 0)
(2.41654 0.0106634 0)
(2.41996 0.00927893 0)
(2.42338 0.00815512 0)
(2.42649 0.00722198 0)
(2.4298 0.00647959 0)
(2.43274 0.00587218 0)
(2.43607 0.00543786 0)
(2.43884 0.00509687 0)
(2.44232 0.00491885 0)
(2.44491 0.00477754 0)
(2.44867 0.00480021 0)
(2.45099 0.00479001 0)
(2.45523 0.0049713 0)
(2.45712 0.00502936 0)
(2.46209 0.00534509 0)
(2.46322 0.00540841 0)
(2.46934 0.00585531 0)
(2.48537 0.0116872 0)
(2.48998 0.0098665 0)
(2.49436 0.00818247 0)
(2.49857 0.00674235 0)
(2.50237 0.00553806 0)
(2.5061 0.00456014 0)
(2.50947 0.00374026 0)
(2.51299 0.00309055 0)
(2.5161 0.00254764 0)
(2.51956 0.00216301 0)
(2.52244 0.00184737 0)
(2.52597 0.00168729 0)
(2.5286 0.00154445 0)
(2.53233 0.0015642 0)
(2.53465 0.00153634 0)
(2.53877 0.00170042 0)
(2.54061 0.00173377 0)
(2.54538 0.00202117 0)
(2.54647 0.00206388 0)
(2.55226 0.00247051 0)
(2.58191 0.00678736 0)
(2.58602 0.00532263 0)
(2.59002 0.00396029 0)
(2.59388 0.00278599 0)
(2.59734 0.0017909 0)
(2.60068 0.000986164 0)
(2.60366 0.000306672 0)
(2.60674 -0.00022039 0)
(2.60943 -0.000668979 0)
(2.61241 -0.000973118 0)
(2.61486 -0.00123495 0)
(2.61785 -0.00134775 0)
(2.62005 -0.0014666 0)
(2.62318 -0.00142248 0)
(2.62509 -0.00144658 0)
(2.6285 -0.00127401 0)
(2.63001 -0.00124884 0)
(2.63393 -0.000964528 0)
(2.63481 -0.000932552 0)
(2.63954 -0.000539502 0)
(2.69094 0.00271827 0)
(2.69385 0.00158948 0)
(2.69673 0.000538636 0)
(2.69951 -0.000376011 0)
(2.70195 -0.00116617 0)
(2.70424 -0.00180111 0)
(2.70622 -0.00234154 0)
(2.70823 -0.00274782 0)
(2.70995 -0.00310058 0)
(2.71186 -0.00332327 0)
(2.71338 -0.00352699 0)
(2.71527 -0.00359103 0)
(2.7166 -0.00368061 0)
(2.71856 -0.0036118 0)
(2.7197 -0.00362681 0)
(2.72185 -0.00344706 0)
(2.72274 -0.00342494 0)
(2.72522 -0.0031468 0)
(2.72573 -0.00312164 0)
(2.72873 -0.0027468 0)
(2.80073 0.000100012 0)
(2.80219 -0.000738644 0)
(2.80367 -0.00151697 0)
(2.80506 -0.00219957 0)
(2.80618 -0.0028031 0)
(2.80713 -0.00328638 0)
(2.80784 -0.00370281 0)
(2.80851 -0.00400709 0)
(2.809 -0.00427749 0)
(2.80955 -0.00443604 0)
(2.80992 -0.00459151 0)
(2.81042 -0.00462364 0)
(2.81069 -0.00469112 0)
(2.81121 -0.00461528 0)
(2.81141 -0.00462548 0)
(2.812 -0.00445819 0)
(2.81215 -0.00444084 0)
(2.81288 -0.00419169 0)
(2.81295 -0.00417312 0)
(2.81387 -0.00384315 0)
(2.89668 -0.00108195 0)
(2.8969 -0.00167295 0)
(2.89716 -0.00221451 0)
(2.8973 -0.00268809 0)
(2.89724 -0.00311383 0)
(2.89695 -0.00345432 0)
(2.89651 -0.00375186 0)
(2.89593 -0.00396413 0)
(2.8953 -0.00415688 0)
(2.89458 -0.00426326 0)
(2.89388 -0.00437447 0)
(2.89308 -0.00438877 0)
(2.89236 -0.00443731 0)
(2.8915 -0.00437168 0)
(2.89083 -0.0043793 0)
(2.88994 -0.00424532 0)
(2.8894 -0.00423356 0)
(2.88845 -0.0040381 0)
(2.88813 -0.00402566 0)
(2.88706 -0.00376921 0)
(2.96727 -0.00107817 0)
(2.96662 -0.00146543 0)
(2.966 -0.00180555 0)
(2.96523 -0.00209347 0)
(2.9643 -0.00235047 0)
(2.9631 -0.00255424 0)
(2.9618 -0.00273281 0)
(2.96029 -0.00285756 0)
(2.95884 -0.00297224 0)
(2.95716 -0.00303274 0)
(2.95567 -0.00309865 0)
(2.95387 -0.00310335 0)
(2.95243 -0.00313167 0)
(2.95052 -0.00308756 0)
(2.94921 -0.00309125 0)
(2.94717 -0.00300524 0)
(2.94613 -0.00299741 0)
(2.94389 -0.00287351 0)
(2.94328 -0.00286555 0)
(2.9407 -0.00270343 0)
(3.00476 -0.000269922 0)
(3.00363 -0.000442831 0)
(3.00255 -0.000587376 0)
(3.00129 -0.000704896 0)
(2.99989 -0.000806555 0)
(2.99819 -0.000886603 0)
(2.99644 -0.000955652 0)
(2.99442 -0.00100447 0)
(2.99252 -0.00104858 0)
(2.99033 -0.0010732 0)
(2.98841 -0.00109887 0)
(2.98608 -0.00110311 0)
(2.98424 -0.00111477 0)
(2.98176 -0.00110154 0)
(2.98011 -0.00110398 0)
(2.97745 -0.00107601 0)
(2.97615 -0.00107395 0)
(2.97321 -0.00103283 0)
(2.97245 -0.00103031 0)
(2.96904 -0.000975952 0)
(1.78576 0.122033 1.81875e-21)
(1.79295 0.109699 0)
(1.79001 0.0967639 -3.03646e-22)
(1.77853 0.0836404 -9.13804e-21)
(1.75712 0.0704545 1.41399e-20)
(1.72979 0.0582989 0)
(1.69173 0.0456163 1.09649e-20)
(1.64164 0.0368505 0)
(1.59443 0.0223532 9.59084e-21)
(1.42682 0.0105836 -1.46525e-22)
(1.84458 0.112493 -2.09094e-21)
(1.8499 0.102092 3.99285e-22)
(1.84595 0.0909475 -4.00087e-22)
(1.83312 0.0807019 -1.0968e-21)
(1.81331 0.0692496 -8.66367e-21)
(1.78251 0.0605002 -5.05421e-22)
(1.75729 0.0491732 0)
(1.69449 0.0423446 -1.23095e-20)
(1.69155 0.0342986 0)
(1.54602 0.0194705 -9.57407e-21)
(1.9088 0.102944 4.31401e-21)
(1.91133 0.0941786 0)
(1.90817 0.0841149 -3.75128e-22)
(1.89135 0.0758387 -6.58347e-22)
(1.87663 0.0658779 9.18054e-21)
(1.83716 0.0589217 0)
(1.82535 0.0506624 1.53371e-20)
(1.75094 0.0429794 1.26886e-20)
(1.76006 0.0398977 0)
(1.64276 0.0265201 9.47569e-21)
(1.97531 0.094552 -1.95711e-21)
(1.9747 0.0869623 7.90255e-21)
(1.97453 0.0781893 0)
(1.95314 0.0709255 1.16713e-20)
(1.9448 0.0628937 6.23829e-22)
(1.89834 0.0558316 -1.17385e-21)
(1.89298 0.0504686 -1.47029e-20)
(1.81705 0.0416144 -4.84236e-22)
(1.81995 0.0399511 -1.40338e-20)
(1.72313 0.0304247 0)
(2.04121 0.0871833 0)
(2.03806 0.0803338 -7.71109e-21)
(2.04134 0.0731387 -8.56566e-21)
(2.01751 0.0662108 1.20681e-21)
(2.01371 0.0601693 -7.70384e-22)
(1.96614 0.052666 -6.01186e-22)
(1.96065 0.0488995 -1.78529e-20)
(1.89029 0.0405324 -1.01134e-21)
(1.88495 0.0383551 -8.932e-22)
(1.79795 0.0321753 1.33048e-20)
(2.10381 0.0804339 2.52303e-21)
(2.09963 0.0740964 5.21783e-22)
(2.10539 0.0683691 -1.36377e-21)
(2.08227 0.0617164 4.62861e-22)
(2.08066 0.0570837 -1.27864e-20)
(2.03683 0.0499489 0)
(2.02987 0.0466304 1.95256e-20)
(1.96641 0.0399531 -5.79181e-22)
(1.95767 0.0369203 3.16543e-20)
(1.8741 0.032537 -2.75938e-20)
(2.16116 0.0739377 -2.53544e-21)
(2.15745 0.0681527 -4.68417e-21)
(2.16473 0.0634898 8.07369e-21)
(2.14448 0.0574569 -1.41671e-20)
(2.14438 0.0535567 -1.58198e-21)
(2.10602 0.0475318 -1.20404e-20)
(2.09981 0.0441705 6.21537e-22)
(2.0421 0.0391117 -1.1768e-21)
(2.03454 0.0355751 -1.57882e-20)
(1.95366 0.0319742 1.42794e-20)
(2.21249 0.0673729 0)
(2.21011 0.0622932 1.01254e-20)
(2.21865 0.0583321 -1.07809e-21)
(2.20184 0.0532213 7.73046e-21)
(2.20384 0.0497136 -6.43729e-22)
(2.17066 0.0449409 2.39858e-20)
(2.16757 0.0415863 -1.07401e-20)
(2.1151 0.0375971 0)
(2.11098 0.0340777 0)
(2.03534 0.0309464 0)
(2.25874 0.0605194 0)
(2.25785 0.0562205 -9.28783e-21)
(2.2677 0.0527963 -5.87329e-22)
(2.2539 0.0486577 7.88345e-21)
(2.25844 0.04553 1.42028e-20)
(2.22971 0.0417921 -1.3458e-20)
(2.23044 0.0387223 1.29157e-20)
(2.18381 0.0354765 -6.92347e-22)
(2.18336 0.0323539 0)
(2.11601 0.0297098 8.76296e-21)
(2.30291 0.0532396 3.34443e-22)
(2.30334 0.0496731 5.29982e-21)
(2.31422 0.0467573 8.19125e-21)
(2.30275 0.0434715 -4.47496e-22)
(2.3092 0.0408235 9.88196e-22)
(2.28434 0.0379024 -1.46135e-20)
(2.28784 0.0353406 1.4062e-20)
(2.24766 0.0327935 -7.2384e-22)
(2.24974 0.0301868 0)
(2.19246 0.0281692 -1.78665e-20)
(2.35023 0.0455957 0)
(2.35168 0.0426309 5.26626e-21)
(2.36279 0.0401878 2.14728e-22)
(2.35294 0.0375989 0)
(2.35977 0.0354484 0)
(2.33808 0.0332322 1.29578e-20)
(2.34226 0.0311953 -1.16669e-20)
(2.30809 0.0293971 -6.88122e-22)
(2.31093 0.0272317 3.68032e-22)
(2.26322 0.0260066 9.40655e-21)
(2.40731 0.0374787 0)
(2.40928 0.0351193 -1.00305e-20)
(2.41956 0.0331185 -1.08542e-20)
(2.41057 0.0311408 1.63612e-21)
(2.41615 0.0293914 -1.04819e-21)
(2.39651 0.0278295 -8.69395e-22)
(2.39937 0.0261613 1.64482e-21)
(2.36935 0.0251216 1.05602e-20)
(2.3714 0.0232516 1.02329e-21)
(2.33036 0.0228857 -3.16552e-22)
(2.47996 0.0292782 0)
(2.48173 0.0275265 5.40418e-21)
(2.49034 0.0258818 -5.95847e-22)
(2.48138 0.0244435 5.90927e-22)
(2.48483 0.0229294 0)
(2.46583 0.0219318 0)
(2.46646 0.0204291 0)
(2.438 0.0200237 -1.19926e-20)
(2.4386 0.0183194 1.12388e-20)
(2.40008 0.0186462 0)
(2.56956 0.0218714 0)
(2.57033 0.0205806 3.44991e-21)
(2.57711 0.0191531 4.44132e-21)
(2.56758 0.0181117 5.75958e-21)
(2.56922 0.016694 -1.09521e-21)
(2.54992 0.0160618 6.77192e-21)
(2.54889 0.0146018 -6.08717e-21)
(2.52012 0.0145307 0)
(2.51971 0.0129353 6.50644e-22)
(2.48079 0.0135368 -1.06689e-20)
(2.67058 0.0157905 -7.68018e-22)
(2.66997 0.0148019 -2.79791e-21)
(2.6754 0.0135468 -5.74139e-21)
(2.66539 0.0127214 -4.05162e-21)
(2.66641 0.0113945 0)
(2.64711 0.0108665 -8.61859e-21)
(2.6459 0.00947738 8.73294e-21)
(2.61718 0.00936558 -8.28312e-22)
(2.61669 0.00791674 -5.55973e-21)
(2.57786 0.00830756 1.54967e-20)
(2.77157 0.0112782 7.71959e-22)
(2.77004 0.0104382 -2.17564e-21)
(2.77477 0.00939048 1.94627e-21)
(2.76534 0.00861598 -4.79819e-21)
(2.7668 0.00747657 0)
(2.74926 0.00684973 0)
(2.749 0.00565161 8.60729e-22)
(2.723 0.00525247 -8.13314e-21)
(2.72303 0.00402914 -5.0291e-21)
(2.68813 0.00393803 -5.2069e-21)
(2.86042 0.00800463 0)
(2.85911 0.00724777 3.5698e-21)
(2.86353 0.00647008 -1.30563e-21)
(2.85622 0.00569742 4.27622e-21)
(2.85837 0.00484458 1.14574e-21)
(2.84481 0.00409362 -9.63328e-22)
(2.84557 0.00318236 1.81372e-21)
(2.82554 0.00250951 5.63375e-21)
(2.82598 0.00155845 0)
(2.79937 0.00105124 0)
(2.93048 0.00529654 0)
(2.93031 0.00470008 1.46031e-21)
(2.93429 0.00424134 -2.66816e-21)
(2.93005 0.0035719 0)
(2.93237 0.00304353 -2.23514e-21)
(2.924 0.00231418 -9.74085e-22)
(2.92511 0.00170873 -2.72482e-21)
(2.91263 0.000966132 -7.96249e-22)
(2.91297 0.000285722 4.13321e-22)
(2.89654 -0.000381691 3.48231e-22)
(2.98047 0.00280079 0)
(2.98135 0.00250271 -1.46729e-21)
(2.98445 0.00236916 -1.32617e-21)
(2.98295 0.00197574 1.83016e-21)
(2.98478 0.0017589 1.07185e-21)
(2.981 0.00126353 1.02005e-21)
(2.98173 0.000943401 4.55389e-21)
(2.97586 0.000380119 -3.32623e-21)
(2.9757 -4.5059e-05 7.74715e-22)
(2.968 -0.000607611 0)
(3.00785 0.000648561 0)
(3.00913 0.000666104 7.17461e-22)
(3.01139 0.000750518 -6.85702e-22)
(3.01136 0.00070928 6.47972e-22)
(3.01258 0.000728052 0)
(3.01136 0.000605097 -1.02508e-21)
(3.01161 0.000538406 8.95101e-22)
(3.00943 0.000341521 7.98106e-22)
(3.0088 0.000187158 0)
(3.00598 -5.7398e-05 0)
(1.12333 0.226554 0)
(1.06197 0.247073 -5.50764e-20)
(1.01326 0.275094 0)
(0.973785 0.311557 -1.8245e-19)
(0.939314 0.35605 6.89909e-20)
(0.907403 0.410196 2.16712e-21)
(0.87467 0.474112 6.12773e-20)
(0.823254 0.536089 -6.79707e-21)
(0.69655 0.542854 0)
(0.385278 0.331789 6.4852e-20)
(1.21418 0.229221 1.00787e-19)
(1.15409 0.255731 5.50753e-20)
(1.10505 0.282429 -5.258e-20)
(1.06404 0.317707 6.14411e-20)
(1.02923 0.362157 -5.31265e-20)
(0.999418 0.416328 7.14644e-21)
(0.970474 0.479786 -6.26879e-20)
(0.921546 0.540069 -1.25459e-19)
(0.786936 0.543345 -3.33187e-20)
(0.43585 0.326963 -9.50141e-20)
(1.29991 0.227977 -4.482e-20)
(1.24395 0.256693 4.64567e-20)
(1.19583 0.282752 5.25784e-20)
(1.15347 0.317174 5.3982e-20)
(1.11808 0.361106 5.52657e-20)
(1.08999 0.414425 5.61748e-20)
(1.06428 0.476075 8.52242e-21)
(1.01665 0.532599 5.51385e-20)
(0.872284 0.530514 2.22504e-20)
(0.48055 0.312171 -2.37518e-20)
(1.38299 0.224197 8.95084e-20)
(1.32974 0.253373 -4.64547e-20)
(1.28244 0.278582 0)
(1.23946 0.311611 0)
(1.2039 0.353944 0)
(1.1773 0.405135 4.28154e-20)
(1.15389 0.46341 -3.72327e-20)
(1.10564 0.513879 0)
(0.948866 0.504545 1.63093e-20)
(0.516184 0.287807 -3.35015e-20)
(1.46099 0.217646 -1.68494e-20)
(1.40913 0.245978 6.07888e-20)
(1.36244 0.270135 0)