/*--------------------------------*- C++ -*----------------------------------*\
| =========                 |                                                 |
| \\      /  F ield         | OpenFOAM: The Open Source CFD Toolbox           |
|  \\    /   O peration     | Version:  4.1                                   |
|   \\  /    A nd           | Web:      www.OpenFOAM.org                      |
|    \\/     M anipulation  |                                                 |
\*---------------------------------------------------------------------------*/
FoamFile
{
    version     2.0;
    format      ascii;
    class       surfaceScalarField;
    location    "12.8";
    object      phi;
}
// * * * * * * * * * * * * * * * * * * * * * * * * * * * * * * * * * * * * * //

dimensions      [0 3 -1 0 0 0 0];

internalField   nonuniform List<scalar> 
3890
(
0.000337241
0.00140934
-0.00174658
0.0021794
-0.000644051
-0.00119811
0.0060652
-0.00578897
0.00190318
0.0122205
-0.012941
0.00678571
0.0204618
-0.0210571
0.0128158
0.0302679
-0.0291805
0.0193744
0.0409664
-0.0366186
0.0259202
0.0520102
-0.043004
0.0319602
0.0628639
-0.048478
0.0376242
-0.0521035
0.04194
0.0730274
0.000610579
0.000798757
0.00333094
-0.00336442
0.00865813
-0.0111162
0.016494
-0.0207768
0.0261529
-0.030716
0.036694
-0.0397216
0.0472712
-0.0471958
0.0573282
-0.053061
0.0663947
-0.0575445
-0.0606581
0.0749493
0.000974625
-0.000175869
0.00473446
-0.00712425
0.0115154
-0.0178971
0.0206101
-0.0298715
0.03077
-0.0408759
0.0408439
-0.0497955
0.0501139
-0.0564658
0.0583047
-0.0612518
0.0654812
-0.064721
-0.0672474
0.0720705
0.00142351
-0.00159938
0.00629139
-0.0119921
0.0142462
-0.025852
0.0238107
-0.039436
0.0334085
-0.0504737
0.042063
-0.05845
0.0494678
-0.0638706
0.0557798
-0.0675638
0.0613359
-0.070277
-0.0724586
0.0665471
0.00193982
-0.00353919
0.0078205
-0.0178728
0.0163708
-0.0344023
0.0254971
-0.0485623
0.0337365
-0.058713
0.0405868
-0.0653003
0.0462028
-0.0694866
0.0510024
-0.0723635
0.0553985
-0.0746731
-0.0768322
0.059772
0.00248049
-0.00601968
0.00907981
-0.0244721
0.0175
-0.0428225
0.0254789
-0.0565413
0.0320235
-0.0652576
0.0371432
-0.07042
0.0412824
-0.0736259
0.0449228
-0.0760038
0.0484197
-0.07817
-0.0803683
0.0519558
0.00297892
-0.0089986
0.00984196
-0.0313352
0.0174863
-0.0504669
0.0239515
-0.0630065
0.0288123
-0.0701184
0.0324393
-0.0740469
0.0353792
-0.0765658
0.0380593
-0.0786839
0.0407182
-0.080829
-0.0831117
0.0434617
0.00335405
-0.0123527
0.00997393
-0.0379551
0.0164199
-0.0569128
0.021287
-0.0678735
0.0246247
-0.0734562
0.02699
-0.0764122
0.0289105
-0.0784863
0.0307122
-0.0804856
0.0325404
-0.0826572
-0.085005
0.0344337
0.00353392
-0.0158866
0.00946475
-0.0438859
0.0145206
-0.0619686
0.0178638
-0.0712167
0.0198685
-0.0754608
0.0211462
-0.07769
0.0221455
-0.0794856
0.0230925
-0.0814326
0.0240602
-0.0836249
-0.086008
0.0250631
0.00348075
-0.0193673
0.008422
-0.0488271
0.0120462
-0.0655929
0.0140018
-0.0731723
0.0148424
-0.0763015
0.0151498
-0.0779974
0.015275
-0.0796108
0.0153641
-0.0815217
0.0154499
-0.0837107
0.0155354
-0.0860935
-0.000447646
0.000447646
-0.00135185
0.000904205
-0.00248533
0.00113348
-0.00371947
0.00123414
-0.00498082
0.00126136
-0.00623172
0.0012509
-0.00745939
0.00122766
-0.00866907
0.00120969
-0.00988188
0.00121281
0.00125777
-0.0111397
-0.000410147
0.000857793
-0.00123613
0.00173019
-0.00226254
0.00215988
-0.00335943
0.00233104
-0.00444903
0.00235095
-0.00548687
0.00228874
-0.00645208
0.00219287
-0.00734289
0.0021005
-0.00817329
0.00204321
0.0020718
-0.00898732
-0.00034403
0.00120182
-0.00103268
0.00241884
-0.00186381
0.00299101
-0.00270921
0.00317644
-0.00348544
0.00312719
-0.0041367
0.00293999
-0.00462671
0.00268289
-0.00493982
0.00241361
-0.00508094
0.00218432
0.00203799
-0.00504712
-0.000266694
0.00146852
-0.000782197
0.00293434
-0.00135906
0.00356788
-0.00187164
0.00368902
-0.00223186
0.0034874
-0.00237272
0.00308086
-0.00223863
0.00254879
-0.00178339
0.00195837
-0.000989743
0.00139068
0.00101999
2.82477e-05
-0.00019389
0.00166241
-0.000523457
0.00326391
-0.000808784
0.0038532
-0.000924637
0.00380487
-0.000777789
0.00334056
-0.000291097
0.00259417
0.000606264
0.00165143
0.00198114
0.000583497
0.00389599
-0.000524181
-0.00149207
0.00640806
-0.000134698
0.0017971
-0.000274849
0.00340406
-0.000230922
0.00380928
0.000132034
0.00344192
0.000922028
0.00255056
0.00223002
0.00128618
0.00413832
-0.000256867
0.00672212
-0.00200031
0.0100562
-0.00385822
-0.00579932
0.0143634
-8.79257e-05
0.00188503
-2.04485e-05
0.00333658
0.000416634
0.00337219
0.00139864
0.00245991
0.00306414
0.000885056
0.00552646
-0.00117614
0.0088699
-0.00360031
0.0131444
-0.00627477
0.0183458
-0.00905961
-0.0123438
0.0248902
-4.2314e-05
0.00192734
0.000275031
0.00301924
0.00123405
0.00241318
0.00305966
0.000634295
0.00593581
-0.00199109
0.00998717
-0.0052275
0.0152615
-0.00887468
0.0217151
-0.0127283
0.0292334
-0.0165779
-0.0212316
0.0381213
3.1897e-05
0.00189545
0.000693752
0.00235738
0.00236621
0.000740725
0.00533874
-0.00233824
0.00980766
-0.00646001
0.0158362
-0.0112561
0.0233435
-0.016382
0.0320824
-0.0214672
0.0418902
-0.0263857
-0.0315815
0.0522401
0.00014887
0.00130814
0.00395204
0.00839951
0.0147553
0.0228737
0.0324118
0.0429048
0.0541433
0.0645019
-0.0118912
0.0007515
-0.0126342
0.000742998
-0.0133507
0.000716561
-0.0140369
0.000686188
-0.0146903
0.000653418
-0.0153084
0.000618094
-0.0158885
0.000580031
-0.0164276
0.000539151
-0.0169232
0.000495603
-0.017373
0.000449835
-0.0177757
0.00040262
-0.0181307
0.000355077
-0.0184394
0.000308677
-0.0187046
0.000265226
-0.0189314
0.000226737
-0.0191265
0.000195117
-0.0192985
0.000172003
-0.0194577
0.000159231
-0.0196156
0.000157877
0.000161066
-0.00961133
0.00137552
-0.0102382
0.0013699
-0.0108553
0.00133364
-0.0114608
0.00129165
-0.0120517
0.00124438
-0.0126254
0.00119177
-0.0131786
0.00113319
-0.0137077
0.00106827
-0.0142092
0.00099707
-0.0146795
0.00092015
-0.0151155
0.000838661
-0.0155149
0.000754423
-0.0158762
0.000669976
-0.0161995
0.000588597
-0.016487
0.000514201
-0.0167428
0.000450881
-0.0169731
0.000402383
-0.0171866
0.000372686
-0.0173943
0.000365591
0.000371374
-0.0054544
0.0017828
-0.00583929
0.00175479
-0.00625689
0.00175124
-0.00668775
0.00172251
-0.0071321
0.00168872
-0.00758871
0.00164838
-0.00805436
0.00159884
-0.0085253
0.00153921
-0.00899743
0.0014692
-0.00946627
0.00138899
-0.00992704
0.00129943
-0.0103749
0.00120225
-0.0108051
0.00110021
-0.0112137
0.000997161
-0.0115976
0.000898154
-0.0119559
0.000809112
-0.0122894
0.000735879
-0.0126014
0.000684689
-0.012901
0.000665211
0.000675316
7.86236e-05
0.00173242
-5.3989e-05
0.0018874
-0.000187575
0.00188483
-0.000353377
0.00188831
-0.000559224
0.00189457
-0.000806072
0.00189523
-0.0010917
0.00188447
-0.00141349
0.001861
-0.00176875
0.00182446
-0.00215413
0.00177437
-0.0025654
0.0017107
-0.00299749
0.00163434
-0.00344457
0.00154729
-0.00390015
0.00145274
-0.00435737
0.00135537
-0.00480963
0.00126138
-0.00525137
0.00117762
-0.00567751
0.00111083
-0.00608492
0.00107262
0.00108594
0.00667473
0.00146575
0.00687045
0.00169168
0.00700327
0.00175201
0.00710636
0.00178521
0.00716301
0.00183792
0.00716678
0.00189146
0.00711827
0.00193298
0.00701803
0.00196123
0.00686562
0.00197687
0.0066609
0.00197909
0.0064047
0.00196689
0.00609894
0.0019401
0.00574663
0.0018996
0.0053521
0.00184728
0.00492125
0.00178621
0.0044615
0.00172113
0.00398102
0.00165811
0.00348845
0.0016034
0.00299866
0.00156241
0.00155026
0.0148093
0.0010199
0.0151482
0.00135275
0.0154438
0.00145638
0.0157288
0.00150027
0.0159786
0.00158813
0.0161842
0.00168585
0.0163464
0.00177074
0.0164641
0.0018436
0.0165331
0.00190785
0.0165494
0.00196278
0.0165097
0.00200653
0.0164116
0.0020382
0.0162534
0.00205781
0.0160346
0.00206615
0.0157561
0.00206469
0.0154208
0.00205644
0.0150337
0.00204514
0.0146003
0.00203681
0.0141328
0.00202997
0.00205375
0.0252423
0.000667827
0.0255357
0.0010593
0.0258204
0.00117166
0.0261291
0.00119161
0.026428
0.00128922
0.0267094
0.00140445
0.0269754
0.0015047
0.0272219
0.00159717
0.0274412
0.00168848
0.0276267
0.00177736
0.0277721
0.00186114
0.0278716
0.00193862
0.0279202
0.00200927
0.0279131
0.00207323
0.0278472
0.00213059
0.0277199
0.0021837
0.0275318
0.00223329
0.0272807
0.00228791
0.0269702
0.0023405
0.00242989
0.0381636
0.000625496
0.038278
0.000944882
0.0384756
0.000974102
0.0387155
0.000951697
0.0389675
0.00103726
0.0392377
0.00113417
0.0395233
0.00121909
0.0398136
0.00130692
0.0400988
0.00140323
0.0403717
0.0015045
0.0406255
0.00160736
0.0408536
0.00171054
0.0410501
0.00181277
0.0412093
0.00191397
0.0413273
0.00201264
0.0413992
0.00211181
0.0414243
0.00220811
0.0413971
0.00231515
0.0413244
0.00241324
0.00257566
0.052116
0.000749618
0.0522321
0.000828783
0.0525407
0.000665517
0.0528188
0.000673562
0.0531198
0.000736301
0.053453
0.000800987
0.053801
0.000871088
0.0541502
0.000957678
0.0544954
0.00105807
0.0548334
0.00116643
0.0551612
0.00127954
0.0554754
0.00139643
0.0557731
0.00151503
0.0560512
0.00163585
0.0563084
0.00175545
0.0565408
0.0018794
0.0567511
0.00199777
0.056932
0.00213429
0.0571001
0.00224509
0.00245085
0.0648849
0.000366584
0.0655607
0.000152961
0.0661588
6.73959e-05
0.0667152
0.000117181
0.067256
0.000195553
0.0677799
0.000277008
0.068281
0.000369983
0.0687639
0.000474789
0.0692345
0.000587485
0.0696956
0.0007053
0.0701491
0.000826102
0.070596
0.00094952
0.071038
0.00107304
0.071475
0.00119879
0.0719095
0.00132094
0.0723395
0.00144948
0.0727717
0.00156557
0.0731996
0.0017064
0.073643
0.00180168
0.00199312
0.089988
0.00121863
-0.09084
0.0890549
0.00108611
0.0881645
0.000957746
0.087393
0.000888709
0.0867222
0.000866328
0.0861256
0.000873613
0.0855895
0.00090603
0.0851053
0.000958989
0.0846657
0.00102714
0.0842642
0.00110678
0.0838956
0.00119468
0.0835557
0.00128942
0.0832416
0.00138716
0.0829505
0.00148993
0.0826815
0.00158993
0.0824323
0.00169871
0.0822048
0.00179306
0.0819977
0.00191342
0.081815
0.00198442
0.00213032
0.0990686
0.00147918
-0.0993292
0.0987045
0.00145023
0.0982717
0.00139057
0.0978412
0.00131924
0.0974341
0.00127336
0.097048
0.00125977
0.0966818
0.00127224
0.0963368
0.00130396
0.0960132
0.00135072
0.0957104
0.00140962
0.095427
0.00147805
0.095162
0.00155449
0.0949139
0.00163522
0.0946819
0.00172194
0.0944652
0.00180664
0.0942637
0.0019002
0.0940769
0.00197982
0.0939087
0.00208168
0.093754
0.00213912
0.00225769
0.105732
0.00174763
-0.106001
0.105531
0.00165117
0.105342
0.00158014
0.105155
0.00150619
0.104978
0.0014506
0.104812
0.00142499
0.104658
0.00142652
0.104514
0.00144806
0.10438
0.00148496
0.104255
0.00153406
0.10414
0.00159299
0.104035
0.00166032
0.103938
0.00173234
0.103849
0.00181082
0.103768
0.00188731
0.103695
0.00197278
0.103631
0.00204419
0.103576
0.00213646
0.103528
0.00218732
0.00229439
0.111213
0.00192876
-0.111394
0.111108
0.00175618
0.11104
0.0016484
0.110981
0.00156528
0.11093
0.00150156
0.110892
0.00146336
0.110867
0.00145141
0.110854
0.00146086
0.110852
0.00148696
0.11086
0.00152624
0.110877
0.00157578
0.110902
0.00163476
0.110936
0.00169851
0.110977
0.00177024
0.111025
0.00183926
0.111078
0.00191932
0.111139
0.00198362
0.111204
0.00207169
0.111274
0.00211684
0.00222
0.116191
0.00198471
-0.116247
0.116165
0.00178271
0.116165
0.00164802
0.116178
0.00155234
0.116199
0.00148072
0.11623
0.00143197
0.116275
0.00140709
0.116332
0.00140371
0.116401
0.0014176
0.116482
0.0014458
0.116573
0.00148427
0.116675
0.00153347
0.116786
0.00158698
0.116906
0.00165057
0.117035
0.00171022
0.11717
0.00178398
0.117314
0.0018398
0.117462
0.00192346
0.117617
0.00196207
0.00206188
0.121152
0.00196591
-0.121134
0.121173
0.00176179
0.121209
0.00161209
0.121258
0.00150386
0.121315
0.00142376
0.12138
0.00136639
0.121457
0.00133066
0.121545
0.00131556
0.121645
0.00131734
0.121757
0.00133422
0.12188
0.00136102
0.122014
0.00139965
0.122159
0.00144184
0.122313
0.00149592
0.122479
0.00154495
0.122652
0.00161056
0.122835
0.001657
0.123025
0.00173375
0.123221
0.00176565
0.00185876
0.126289
0.00191624
-0.12624
0.126335
0.00171641
0.126387
0.0015595
0.12645
0.00144171
0.12652
0.00135366
0.126597
0.00128888
0.126684
0.00124421
0.12678
0.00121891
0.126888
0.00120948
0.127007
0.00121542
0.127137
0.00123081
0.127278
0.0012587
0.12743
0.00128958
0.127593
0.00133334
0.127766
0.00137166
0.127949
0.00142761
0.128141
0.00146476
0.128343
0.00153222
0.128551
0.00155784
0.00164077
0.131554
0.00184809
-0.131485
0.131615
0.0016548
0.131678
0.0014964
0.131747
0.00137311
0.131822
0.00127885
0.131903
0.0012079
0.131991
0.00115588
0.132088
0.00112195
0.132195
0.00110264
0.132312
0.0010984
0.132439
0.00110319
0.132578
0.00112063
0.132726
0.00114086
0.132885
0.00117411
0.133055
0.00120232
0.133235
0.00124783
0.133423
0.00127636
0.133622
0.00133311
0.133827
0.00135313
0.00142384
0.13677
0.00175831
-0.13668
0.13685
0.00157428
0.136928
0.00141843
0.137008
0.00129329
0.137092
0.00119527
0.13718
0.00111977
0.137274
0.00106209
0.137374
0.00102119
0.137483
0.000993658
0.137601
0.000980463
0.137729
0.000975898
0.137865
0.000983648
0.138012
0.000994328
0.138169
0.00101748
0.138334
0.00103659
0.138511
0.00107169
0.138694
0.00109254
0.138889
0.00113826
0.139089
0.00115339
0.00121142
0.141753
0.00163691
-0.141631
0.141863
0.00146372
0.141968
0.00131309
0.142072
0.00118937
0.142177
0.00109043
0.142284
0.00101262
0.142395
0.000951294
0.142511
0.000905413
0.142633
0.000871667
0.142762
0.000851274
0.142899
0.000839048
0.143044
0.000838499
0.143197
0.000841105
0.14336
0.000855306
0.14353
0.000866633
0.143709
0.000892243
0.143895
0.000906514
0.144091
0.000941995
0.144292
0.000952962
0.000999235
0.146418
0.00146802
-0.146249
0.146574
0.00130689
0.146723
0.00116414
0.146867
0.00104523
0.147009
0.000948659
0.14715
0.00087141
0.147293
0.000809043
0.147437
0.000760733
0.147586
0.000723266
0.147739
0.000698094
0.147898
0.000680434
0.148062
0.000673721
0.148233
0.000670182
0.148411
0.000677381
0.148595
0.000682581
0.148787
0.000700547
0.148984
0.00070953
0.149189
0.000736625
0.149398
0.000744214
0.000780822
0.15088
0.00123727
-0.150649
0.151096
0.00109092
0.1513
0.000959678
0.151496
0.00084946
0.151686
0.000758911
0.151871
0.000685652
0.152055
0.000625412
0.152238
0.000577849
0.152421
0.000539676
0.152607
0.000512788
0.152795
0.000492431
0.152986
0.000482385
0.153181
0.000475074
0.153381
0.000477942
0.153584
0.000479006
0.153793
0.000491935
0.154005
0.000497132
0.154223
0.000518522
0.154444
0.000523579
0.000553473
0.155489
0.000946529
-0.155198
0.155761
0.000819112
0.156017
0.000703707
0.15626
0.000606142
0.156494
0.000525186
0.15672
0.000459414
0.156941
0.000404615
0.157158
0.00036118
0.157372
0.00032547
0.157585
0.000300136
0.157797
0.000279973
0.15801
0.000269657
0.158224
0.000261083
0.158439
0.000262523
0.158657
0.000261531
0.158876
0.000272259
0.159098
0.000275219
0.159323
0.000293804
0.159549
0.000297179
0.000323475
0.160716
0.000625992
-0.160395
0.161014
0.000521075
0.161293
0.000424917
0.161556
0.000342927
0.161807
0.000274144
0.162048
0.000218474
0.162281
0.000171671
0.162507
0.000134969
0.162728
0.000104216
0.162945
8.30062e-05
0.16316
6.5337e-05
0.163372
5.71646e-05
0.163584
4.93406e-05
0.163795
5.16168e-05
0.164006
5.02443e-05
0.164218
6.09414e-05
0.16443
6.29183e-05
0.164643
8.08647e-05
0.164857
8.32605e-05
0.00010822
0.166853
0.000329716
-0.166556
0.167126
0.000247873
0.167379
0.000171851
0.167616
0.00010613
0.16784
5.02237e-05
0.168053
5.49659e-06
0.168257
-3.24047e-05
0.168453
-6.14467e-05
0.168644
-8.61823e-05
0.168829
-0.000102263
0.169011
-0.000116415
0.169189
-0.000121497
0.169366
-0.000127624
0.169542
-0.000123668
0.169716
-0.000124593
0.16989
-0.000113202
0.170065
-0.000111544
0.170239
-9.36145e-05
0.170414
-9.17733e-05
-6.75703e-05
0.173703
0.000108833
-0.173482
0.173903
4.72824e-05
0.174085
-1.01351e-05
0.174252
-6.09543e-05
0.174407
-0.000104747
0.174552
-0.000139526
0.174689
-0.00016912
0.174818
-0.000190975
0.174942
-0.000210076
0.175062
-0.000221539
0.175178
-0.000232335
0.175291
-0.000234827
0.175403
-0.00023932
0.175513
-0.000234279
0.175623
-0.000234736
0.175733
-0.000223386
0.175844
-0.000221948
0.175955
-0.000204963
0.176067
-0.000203534
-0.000181143
0.180552
-1.70519e-05
-0.180426
0.180661
-6.15247e-05
0.180754
-0.000103439
0.180834
-0.000140665
0.180902
-0.000173378
0.180962
-0.00019917
0.181014
-0.000221279
0.18106
-0.000237069
0.181101
-0.000251192
0.181139
-0.000259056
0.181173
-0.000267007
0.181207
-0.000267977
0.181238
-0.000271224
0.18127
-0.0002663
0.181302
-0.000266551
0.181335
-0.000256635
0.181369
-0.00025553
0.181405
-0.000241117
0.181442
-0.000240083
-0.000221345
0.186517
-5.97336e-05
-0.186474
0.186545
-8.99207e-05
0.186559
-0.000117869
0.186561
-0.000142274
0.186552
-0.000164052
0.186534
-0.000181199
0.186509
-0.000196015
0.186478
-0.000206347
0.186442
-0.000215749
0.186404
-0.000220689
0.186363
-0.000225983
0.186321
-0.000226236
0.186278
-0.000228389
0.186237
-0.000224583
0.186195
-0.000224736
0.186156
-0.00021747
0.186117
-0.000216735
0.186082
-0.000206333
0.186048
-0.000205658
-0.000192249
0.190896
-4.26884e-05
-0.190913
0.190867
-6.04285e-05
0.190824
-7.4957e-05
0.190769
-8.68954e-05
0.190702
-9.75909e-05
0.190627
-0.000106067
0.190545
-0.00011346
0.190457
-0.000118561
0.190364
-0.000123246
0.190269
-0.000125638
0.190171
-0.000128259
0.190073
-0.000128282
0.189974
-0.000129308
0.189877
-0.000127279
0.18978
-0.000127284
0.189686
-0.000123519
0.189592
-0.000123056
0.189503
-0.000117729
0.189415
-0.000117264
-0.000110339
0.193221
-0.193264
0.193161
0.193086
0.192999
0.192901
0.192795
0.192682
0.192563
0.19244
0.192314
0.192186
0.192058
0.191929
0.191801
0.191674
0.19155
0.191427
0.19131
0.191192
0.0897369
0.0144742
-0.0886757
0.090819
0.0239811
0.0919397
0.033313
0.0930544
0.042347
0.0941913
0.0508189
0.0952363
0.0587271
0.0959665
0.0658168
0.0964566
0.0715804
0.0939779
0.077428
0.0761652
0.0925969
0.0135239
-0.0916467
0.0936154
0.0229626
0.094732
0.0321963
0.0959167
0.0411623
0.0971135
0.0496221
0.098465
0.0573756
0.0994022
0.0648797
0.100848
0.0701348
0.100829
0.077447
0.0776648
0.095702
0.012675
-0.094853
0.0966781
0.0219865
0.0977645
0.0311099
0.09902
0.0399068
0.100243
0.0483992
0.101793
0.0558251
0.103035
0.0636377
0.104655
0.0685155
0.106063
0.0760387
0.077727
0.0989159
0.0118981
-0.098139
0.0998926
0.0210098
0.100989
0.0300136
0.102331
0.0385647
0.103663
0.0470669
0.105293
0.0541958
0.10687
0.0620603
0.108424
0.0669619
0.110369
0.0740934
0.0767016
0.102122
0.011161
-0.101385
0.103129
0.0200032
0.104302
0.0288402
0.105745
0.0371216
0.107279
0.0455336
0.108971
0.0525038
0.110827
0.0602036
0.112476
0.0653132
0.114581
0.0719879
0.0750355
0.105214
0.0104323
-0.104486
0.106267
0.0189511
0.107568
0.0275385
0.109137
0.0355532
0.110916
0.0437542
0.112773
0.0506469
0.114892
0.0580844
0.116844
0.0633618
0.119093
0.069738
0.0729955
0.108097
0.00968572
-0.107351
0.10921
0.017838
0.110663
0.0260862
0.112395
0.0338205
0.114434
0.0417153
0.116575
0.0485061
0.118991
0.055668
0.121343
0.0610106
0.123867
0.0672136
0.0706228
0.110718
0.00890534
-0.109938
0.111908
0.0166486
0.113511
0.0244832
0.115439
0.0318922
0.117737
0.0394172
0.120217
0.0460259
0.122976
0.0529088
0.125758
0.0582294
0.128699
0.0642719
0.0678367
0.113104
0.00808425
-0.112283
0.114376
0.015376
0.116116
0.022744
0.11824
0.029768
0.120782
0.0368753
0.123591
0.0432172
0.126718
0.0497818
0.129938
0.0550092
0.133383
0.0608267
0.0645397
0.115388
0.007224
-0.114528
0.116736
0.0140288
0.118585
0.0208948
0.120871
0.0274816
0.123621
0.0341258
0.126706
0.0401316
0.130181
0.046307
0.133818
0.0513719
0.137771
0.0568743
0.0606791
0.117817
0.00633765
-0.116931
0.119215
0.0126306
0.121137
0.0189724
0.123533
0.0250864
0.126433
0.0312254
0.129723
0.0368416
0.133474
0.0425556
0.137462
0.0473841
0.141847
0.05249
0.0562772
0.120703
0.00543607
-0.119801
0.122117
0.0112163
0.124073
0.0170167
0.126525
0.0226341
0.129515
0.0282359
0.132935
0.0334209
0.136866
0.0386248
0.14111
0.0431404
0.145803
0.0477968
0.0514312
0.12431
0.00456739
-0.123441
0.125711
0.00981555
0.12767
0.015057
0.13015
0.0201544
0.133187
0.0251984
0.136693
0.029915
0.14073
0.0345886
0.145148
0.0387217
0.150037
0.0429077
0.0462701
0.128704
0.0037662
-0.127903
0.130074
0.00844572
0.132031
0.0130997
0.134545
0.0176403
0.137636
0.0221076
0.141237
0.0263144
0.145375
0.0304505
0.14995
0.0341466
0.155
0.037857
0.0408753
0.133624
0.00304987
-0.132908
0.134969
0.00710054
0.136947
0.0111215
0.139538
0.0150498
0.142737
0.0189086
0.146496
0.0225552
0.150812
0.0261347
0.155607
0.029351
0.160895
0.0325691
0.0352141
0.138535
0.00240423
-0.137889
0.139883
0.00575195
0.141925
0.00907956
0.144647
0.0123281
0.148028
0.0155271
0.152029
0.0185545
0.156632
0.0215319
0.161759
0.0242238
0.167422
0.0269063
0.0291543
0.142868
0.00179077
-0.142255
0.144254
0.00436618
0.146398
0.00693556
0.149287
0.00943905
0.1529
0.0119146
0.157194
0.0142606
0.162154
0.0165713
0.167697
0.0186813
0.173837
0.0207663
0.0225654
0.146303
0.00118074
-0.145693
0.147738
0.00293045
0.14999
0.00468335
0.153042
0.0063876
0.156878
0.00807848
0.161454
0.00968429
0.166761
0.0112649
0.172717
0.0127252
0.179331
0.0141525
0.015422
0.148755
0.000581336
-0.148156
0.150219
0.00146597
0.152546
0.00235657
0.155713
0.00322052
0.159712
0.00407937
0.1645
0.00489637
0.170066
0.00569936
0.176343
0.00644795
0.183323
0.00717304
0.0078312
0.150094
-0.149512
0.15156
0.153916
0.157137
0.161216
0.166112
0.171812
0.17826
0.185433
0.0422093
0.0515287
-0.045461
-0.0482769
0.0361986
0.0501762
-0.0441656
0.0306
0.0492919
-0.0436933
0.0253187
0.0489643
-0.043683
0.0202386
0.0491064
-0.0440262
0.0152917
0.0496999
-0.044753
0.0104616
0.0506024
-0.0457723
0.00586689
0.0506839
-0.0460892
0.00198664
0.0458759
-0.0419956
0.0263301
-0.0243435
0.0404174
0.0574966
-0.0463853
0.0345828
0.0560108
0.0290372
0.0548376
0.0238195
0.0541819
0.0188556
0.0540703
0.0140655
0.0544901
0.0094349
0.0552329
0.00511661
0.0550021
0.00161982
0.0493726
0.02795
0.0377138
0.0631191
-0.0433363
0.0321726
0.061552
0.0268342
0.060176
0.0217828
0.0592333
0.0170014
0.0588517
0.0124334
0.0590581
0.00808311
0.0595832
0.00414481
0.0589404
0.00115153
0.0523659
0.0291015
0.0339301
0.0683576
-0.0391686
0.0288082
0.0666739
0.0238409
0.0651433
0.0191072
0.0639671
0.0146249
0.0633339
0.0103726
0.0633104
0.00639538
0.0635605
0.00295056
0.0623853
0.000581842
0.0547346
0.0296833
0.0291437
0.0731345
-0.0339206
0.0245164
0.0713013
0.0200389
0.0696208
0.0157583
0.0682476
0.0117
0.0673921
0.0078725
0.0671379
0.00436614
0.0670668
0.00152704
0.0652244
-8.9273e-05
0.056351
0.0295941
0.0233845
0.0773217
-0.0275717
0.0193582
0.0753276
0.0154774
0.0735015
0.0117622
0.0719629
0.00823698
0.0709173
0.00494316
0.0704317
0.0020243
0.0699857
-0.000163308
0.067412
-0.000751985
0.0569396
0.0288421
0.0167703
0.0807951
-0.0202437
0.0134408
0.0786572
0.0102433
0.076699
0.00718485
0.0750213
0.00428565
0.0738165
0.00163109
0.0730863
-0.000557773
0.0721746
-0.00175052
0.0686047
-0.00143972
0.0566288
0.0274024
0.00941797
0.0834524
-0.0120752
0.00686771
0.0812074
0.00443393
0.0791328
0.00211279
0.0773425
-6.72234e-05
0.0759965
-0.00199906
0.0750181
-0.00333691
0.0735124
-0.00352932
0.0687971
-0.00211443
0.055214
0.0252879
0.00146696
0.085272
-0.00328665
-0.000226238
0.0829006
-0.00184037
0.0807469
-0.00338601
0.0788881
-0.0048037
0.0774142
-0.00590101
0.0761154
-0.00627787
0.0738893
-0.00531653
0.0678358
-0.00272273
0.0526202
0.0225652
-0.00687406
0.0060526
-0.00768414
-0.00845892
-0.0091816
-0.00976482
-0.00995083
-0.00923381
-0.00699089
-0.00319786
0.0321521
0.00304531
-0.0351974
0.0289857
0.00316642
0.0256789
0.00330679
0.0222111
0.00346775
0.0185544
0.00365673
0.0146753
0.00387907
0.0105559
0.00411945
0.00628413
0.00427176
0.00231532
0.00396881
0.00231532
0.0327389
0.00622231
-0.0359159
0.0294562
0.0064491
0.0260483
0.00671472
0.0224942
0.00702179
0.0187655
0.00738548
0.0148274
0.00781711
0.0106588
0.0082881
0.00634409
0.00858645
0.00234452
0.00796838
0.00465983
0.0338511
0.00964986
-0.0372786
0.0303469
0.00995324
0.026746
0.0103157
0.0230268
0.010741
0.0191598
0.0112525
0.0151085
0.0118684
0.0108486
0.012548
0.00645871
0.0129764
0.00239069
0.0120364
0.00705052
0.0353707
0.01342
-0.0391408
0.0315623
0.0137617
0.0276951
0.0141828
0.0237478
0.0146883
0.0196898
0.0153105
0.0154827
0.0160754
0.0110977
0.016933
0.0066056
0.0174685
0.00245008
0.0161919
0.0095006
0.0371355
0.0175903
-0.0413057
0.0329688
0.0179283
0.0287868
0.0183648
0.0245697
0.0189055
0.0202865
0.0195936
0.0158965
0.0204655
0.0113662
0.0214633
0.00675878
0.0220759
0.0025098
0.0204409
0.0120104
0.0389609
0.0221768
-0.0435475
0.0344132
0.022476
0.0298933
0.0228847
0.0253874
0.0234114
0.0208651
0.0241159
0.0162831
0.0250475
0.0116041
0.0261423
0.00688494
0.026795
0.0025543
0.0247715
0.0145647
0.0406346
0.0271805
-0.0456383
0.0357069
0.0274037
0.0308606
0.0277309
0.026083
0.028189
0.021336
0.0288629
0.0165738
0.0298097
0.0117596
0.0309564
0.00694895
0.0316057
0.00256712
0.0291534
0.0171318
0.042036
0.0325848
-0.0474402
0.0367205
0.0327191
0.0315625
0.032889
0.0265396
0.0332119
0.0215984
0.0338041
0.016689
0.0347191
0.0117748
0.0358707
0.00691318
0.0364673
0.0025311
0.0335354
0.0196629
0.0427632
0.0384922
-0.0486706
0.0371415
0.0383408
0.0318061
0.0382244
0.0266281
0.0383899
0.0215531
0.038879
0.0165508
0.0397215
0.0115914
0.04083
0.00673972
0.041319
0.0024295
0.0378457
0.0220924
0.0428789
-0.0498477
0.0370541
0.0315852
0.0262922
0.021145
0.0161134
0.0111712
0.00640102
0.00225107
0.0387729
-0.000101848
0.038874
-0.000101016
0.0389719
-9.79015e-05
0.0390625
-9.06123e-05
0.0391423
-7.97875e-05
0.0392078
-6.55501e-05
0.0392553
-4.74704e-05
0.03928
-2.47689e-05
0.0392764
3.63997e-06
0.0392432
3.3231e-05
0.0391733
6.98831e-05
0.0390596
0.000113715
0.0388939
0.000165716
0.0386666
0.000227249
0.0383666
0.000300028
0.0379804
0.000386151
0.0374921
0.000488292
0.0368826
0.000609554
0.0361283
0.000754316
0.00093085
0.0396287
-0.000204861
0.0397292
-0.000201551
0.0398252
-0.000193854
0.0399133
-0.000178756
0.0399905
-0.000156943
0.0400532
-0.000128232
0.0400974
-9.17031e-05
0.0401184
-4.58063e-05
0.0401114
1.0652e-05
0.0400738
7.08599e-05
0.0399987
0.000144993
0.0398788
0.00023359
0.0397059
0.000338654
0.0394702
0.000462919
0.0391604
0.000609829
0.038763
0.000783562
0.0382618
0.00098952
0.0376376
0.00123376
0.0368668
0.00152511
0.00188176
0.0413116
-0.00029977
0.0414046
-0.000294462
0.0414933
-0.000282558
0.041574
-0.000259523
0.0416434
-0.000226313
0.0416978
-0.000182593
0.0417329
-0.000126891
0.0417438
-5.66482e-05
0.0417272
2.72157e-05
0.0416783
0.000119803
0.0415903
0.000232987
0.0414558
0.00036811
0.0412662
0.000528227
0.0410116
0.000717467
0.0406804
0.000941031
0.0402589
0.00120515
0.0397303
0.00151804
0.0390756
0.00188851
0.0382712
0.0023295
0.00287433
0.0437616
-0.000376509
0.0438363
-0.000369117
0.0439069
-0.000353199
0.0439696
-0.000322209
0.0440204
-0.000277134
0.0440554
-0.000217611
0.0440702
-0.000141681
0.0440595
-4.59159e-05
0.0440227
6.40324e-05
0.0439507
0.000191766
0.0438374
0.000346318
0.0436751
0.000530383
0.0434551
0.000748227
0.0431671
0.00100546
0.0427991
0.00130905
0.0423369
0.00166734
0.0417636
0.00209139
0.0410591
0.00259296
0.0402016
0.00318705
0.00393506
0.046897
-0.000418243
0.0469364
-0.000408474
0.0469714
-0.000388278
0.0469984
-0.000349153
0.0470131
-0.000291834
0.0470113
-0.000215841
0.0469885
-0.000118874
0.046936
6.60569e-06
0.0468607
0.00013929
0.0467471
0.000305416
0.0465894
0.000504042
0.04638
0.000739767
0.0461099
0.00101832
0.0457683
0.00134702
0.0453429
0.00173443
0.0448189
0.00219141
0.044179
0.00273124
0.0434013
0.00337066
0.0424677
0.00412065
0.00509708
0.0506231
-0.000400742
0.0506026
-0.000387892
0.0505765
-0.000362193
0.0505414
-0.000314078
0.0504932
-0.000243642
0.0504272
-0.000149864
0.0503357
-2.73042e-05
0.0502294
0.000112829
0.0500858
0.000282936
0.0499029
0.000488311
0.049674
0.000732949
0.0493907
0.00102306
0.0490439
0.00136512
0.048622
0.00176891
0.0481127
0.0022437
0.0474994
0.00280475
0.0467661
0.00346456
0.0458855
0.00425126
0.0448491
0.00515701
0.00639873
0.054843
-0.000291085
0.054729
-0.000273861
0.0546075
-0.000240679
0.0544764
-0.00018303
0.054331
-9.81926e-05
0.0541637
1.74296e-05
0.0539842
0.000152218
0.0537746
0.000322363
0.0535298
0.000527817
0.0532439
0.000774148
0.0529103
0.00106654
0.0525198
0.00141361
0.0520636
0.00182128
0.0515286
0.00230392
0.0509044
0.00286792
0.05017
0.00353911
0.0493146
0.00432004
0.0482957
0.00527015
0.0471141
0.00633862
0.00787448
0.0594684
-4.49444e-05
0.0592169
-2.24099e-05
0.0589547
2.15733e-05
0.058683
8.86814e-05
0.0583997
0.000185073
0.0581038
0.000313317
0.0577815
0.000474589
0.0574299
0.000673972
0.0570433
0.000914394
0.0566143
0.00120314
0.0561364
0.00154445
0.0555987
0.00195124
0.0549942
0.00242583
0.0543057
0.00299245
0.0535279
0.00364572
0.0526306
0.00443641
0.051619
0.00533163
0.0504266
0.00646247
0.0491017
0.00766359
0.00953594
0.0644256
0.000380321
0.0639853
0.000417947
0.0635361
0.00047079
0.0630789
0.000545889
0.0626112
0.000652751
0.0621265
0.00079803
0.0616179
0.000983181
0.0610797
0.0012121
0.0605072
0.0014869
0.059892
0.00181835
0.0592285
0.00220796
0.0585036
0.0026762
0.0577137
0.00321572
0.0568341
0.003872
0.0558712
0.00460868
0.0547671
0.00554046
0.0535672
0.00653152
0.0521218
0.00790785
0.0506245
0.00916089
0.0114899
0.0696984
0.00110382
0.0689978
0.00111859
0.0683029
0.00116568
0.0676068
0.00124197
0.0669024
0.00135716
0.0661812
0.0015192
0.0654374
0.00172697
0.0646654
0.0019841
0.0638617
0.00229056
0.0630176
0.0026625
0.0621299
0.00309568
0.0611835
0.00362255
0.0601821
0.00421712
0.0590956
0.00495856
0.0579525
0.00575176
0.0566749
0.00681806
0.0553817
0.00782475
0.0537946
0.0094949
0.0523299
0.0106256
0.0139721
0.0695269
0.00112911
0.0695146
0.0011309
0.0695113
0.00116896
0.0695175
0.00123575
0.0695273
0.00134734
0.0695355
0.00151104
0.0695436
0.00171882
0.0695538
0.00197389
0.0695711
0.00227328
0.0695955
0.00263812
0.0696363
0.0030549
0.0696915
0.00356734
0.0697838
0.00412485
0.0699024
0.00483993
0.0701031
0.00555109
0.0703451
0.00657601
0.070776
0.0073939
0.0713175
0.00895335
0.0724354
0.00950765
0.0119861
0.0744215
0.0750208
0.00108699
0.0750164
0.00113535
0.0750279
0.00115741
0.0750598
0.00120385
0.0750953
0.00131188