/*--------------------------------*- C++ -*----------------------------------*\
| =========                 |                                                 |
| \\      /  F ield         | OpenFOAM: The Open Source CFD Toolbox           |
|  \\    /   O peration     | Version:  4.1                                   |
|   \\  /    A nd           | Web:      www.OpenFOAM.org                      |
|    \\/     M anipulation  |                                                 |
\*---------------------------------------------------------------------------*/
FoamFile
{
    version     2.0;
    format      ascii;
    class       volVectorField;
    location    "12.8";
    object      U;
}
// * * * * * * * * * * * * * * * * * * * * * * * * * * * * * * * * * * * * * //

dimensions      [0 1 -1 0 0 0 0];

internalField   nonuniform List<vector> 
2000
(
(-0.0244897 0.0217786 -1.38239e-22)
(0.00572191 0.0199153 0)
(0.102494 0.00677617 -5.35198e-21)
(0.250845 -0.0080283 -3.65679e-21)
(0.434876 -0.0184493 6.93053e-21)
(0.634987 -0.022505 1.27728e-20)
(0.833579 -0.0199499 -4.04329e-21)
(1.01272 -0.0151128 0)
(1.18449 -0.00308928 4.78075e-21)
(1.29117 0.00449925 0)
(-0.0179814 0.0153748 1.97536e-22)
(0.0470628 0.00230496 -1.22033e-21)
(0.19618 -0.0134909 2.06406e-21)
(0.402231 -0.0244027 6.83342e-21)
(0.634606 -0.0266493 -7.09375e-22)
(0.863265 -0.0212087 -4.52428e-21)
(1.06725 -0.0109493 3.54234e-21)
(1.23639 -0.00046543 4.45546e-21)
(1.37454 0.0124548 -4.7805e-21)
(1.45824 0.0133783 -1.02558e-20)
(-0.00491618 0.00727213 1.12678e-21)
(0.109266 -0.0163572 -1.05542e-21)
(0.32205 -0.0300105 -9.33903e-22)
(0.584937 -0.031523 -1.17128e-21)
(0.849245 -0.0225238 -2.7672e-21)
(1.08051 -0.00805673 -3.45347e-21)
(1.26437 0.00696292 -4.01523e-21)
(1.40136 0.0189277 -4.45534e-21)
(1.50072 0.0281474 -5.02082e-21)
(1.57091 0.0292028 5.40833e-21)
(0.0168459 -0.00198176 -6.04592e-22)
(0.19533 -0.0330019 -2.23259e-21)
(0.476754 -0.0378704 0)
(0.782521 -0.0258089 -2.15946e-21)
(1.05228 -0.00611883 8.18903e-22)
(1.2603 0.0135079 0)
(1.40769 0.0287473 0)
(1.50805 0.0379727 0)
(1.57994 0.0435835 5.02101e-21)
(1.6291 0.0419505 -1.14601e-20)
(0.0492172 -0.0111445 9.11586e-21)
(0.305345 -0.0431999 -9.17661e-23)
(0.649332 -0.032836 2.10466e-21)
(0.97314 -0.00681887 -3.50496e-22)
(1.22223 0.0194034 -2.63858e-22)
(1.39205 0.0391512 -1.21967e-21)
(1.50151 0.0509858 0)
(1.57405 0.0563441 -2.57471e-21)
(1.62769 0.0579239 1.52673e-20)
(1.67355 0.0541854 -2.09457e-20)
(0.0933032 -0.0183263 -1.67091e-20)
(0.434794 -0.0422587 1.465e-21)
(0.823279 -0.0132092 -4.01613e-21)
(1.1384 0.0230892 2.64959e-21)
(1.35059 0.0504138 1.69948e-21)
(1.48036 0.0664362 -1.28088e-22)
(1.5596 0.07343 0)
(1.61416 0.0746616 2.5749e-21)
(1.66025 0.0728354 -3.02841e-21)
(1.70445 0.0683441 -1.59013e-20)
(0.148918 -0.0211528 0)
(0.574356 -0.0267752 0)
(0.982474 0.0199139 -2.48654e-21)
(1.2691 0.0607766 2.3148e-21)
(1.43961 0.0846462 8.47833e-22)
(1.53505 0.0948299 -7.95993e-22)
(1.59319 0.0965263 -5.90242e-21)
(1.63798 0.0938326 5.57913e-21)
(1.68083 0.0891582 8.23525e-21)
(1.72575 0.0836837 -3.9246e-21)
(0.213995 -0.0172119 4.58392e-21)
(0.711932 0.00411789 0)
(1.11613 0.0639176 -8.22303e-22)
(1.36411 0.103683 3.02425e-21)
(1.49554 0.120958 -4.14053e-23)
(1.5646 0.124264 0)
(1.6094 0.120646 0)
(1.64941 0.114188 0)
(1.69181 0.106937 9.90487e-21)
(1.73769 0.100449 -9.41509e-21)
(0.284545 -0.00470157 -2.49941e-21)
(0.836122 0.0487911 -3.04598e-22)
(1.21938 0.115845 -1.88927e-21)
(1.42626 0.1499 1.28596e-22)
(1.52459 0.15861 1.92559e-22)
(1.57489 0.154641 -1.00865e-21)
(1.61196 0.145806 0)
(1.65019 0.135717 1.41404e-21)
(1.69295 0.126102 7.59431e-21)
(1.73964 0.117962 -5.72488e-21)
(0.355234 0.0171161 0)
(0.938775 0.104089 -1.6478e-21)
(1.29129 0.172811 0)
(1.45951 0.197899 -2.87994e-22)
(1.53173 0.196952 -2.52647e-22)
(1.56949 0.185642 8.04947e-22)
(1.60255 0.171698 0)
(1.6405 0.158032 -1.41417e-21)
(1.68398 0.146026 -1.57117e-21)
(1.73143 0.135662 -1.9218e-21)
(-0.00446538 0.0043807 0)
(-0.0185667 0.00848661 9.49869e-22)
(-0.0391238 0.0100353 0)
(-0.0592264 0.0103075 1.18467e-21)
(-0.0772677 0.00993418 3.59237e-22)
(-0.0929723 0.00929131 -6.72978e-22)
(-0.106435 0.00862639 6.33776e-22)
(-0.117982 0.00810693 -5.85602e-22)
(-0.128109 0.00786653 -6.17768e-24)
(-0.137628 0.00803902 -5.14551e-22)
(-0.00544457 0.0127165 3.06813e-21)
(-0.0197186 0.0246734 -1.89907e-21)
(-0.0390789 0.0291953 1.67527e-21)
(-0.0572909 0.0299347 -7.85564e-22)
(-0.0729723 0.0287307 -3.58332e-21)
(-0.0859024 0.0266874 1.34499e-21)
(-0.0961943 0.024541 0)
(-0.10415 0.0228134 5.83642e-22)
(-0.110151 0.0219223 5.46135e-22)
(-0.115253 0.0222943 0)
(-0.00730502 0.0198596 -2.04722e-21)
(-0.0219684 0.0386522 0)
(-0.0391215 0.0457395 -4.96149e-21)
(-0.0537974 0.046706 6.09113e-21)
(-0.0650232 0.0444409 -1.40885e-21)
(-0.0727099 0.0406887 0)
(-0.0770219 0.0366324 0)
(-0.0782814 0.0331737 0)
(-0.0766308 0.0310855 -4.39948e-21)
(-0.0728729 0.0312409 4.18128e-21)
(-0.00985426 0.0253208 0)
(-0.0251606 0.0493897 3.43771e-21)
(-0.0393497 0.0583096 -6.3514e-21)
(-0.0491136 0.0590924 2.94824e-21)
(-0.0540682 0.055445 -2.75146e-21)
(-0.0543534 0.0495961 7.7657e-21)
(-0.050227 0.0430476 2.94563e-23)
(-0.0421671 0.0370036 -4.64316e-21)
(-0.0302731 0.0328328 -4.54634e-21)
(-0.0128186 0.0331707 6.56087e-21)
(-0.0128826 0.0289745 -3.65384e-21)
(-0.0289778 0.0563344 6.41297e-21)
(-0.0394959 0.0660224 -9.79822e-23)
(-0.0429552 0.0660376 5.12044e-23)
(-0.0396919 0.0606693 -2.74521e-21)
(-0.030177 0.0524495 7.56741e-21)
(-0.0148258 0.0430072 0)
(0.00581143 0.0336693 2.36926e-21)
(0.0319565 0.026457 -2.34214e-21)
(0.0654779 0.0258429 8.86168e-21)
(-0.0161993 0.0309746 -1.57973e-22)
(-0.03284 0.0593563 -6.15377e-21)
(-0.0385561 0.0684377 -2.92928e-21)
(-0.0336685 0.0669254 -2.51085e-21)
(-0.0192596 0.0595208 -2.63114e-21)
(0.00383368 0.0489576 -2.51963e-21)
(0.0349598 0.0368661 0)
(0.0731979 0.0244016 -2.36913e-21)
(0.118322 0.0134106 -7.55393e-21)
(0.177692 0.0108818 1.97361e-21)
(-0.0196164 0.0315978 2.40967e-23)
(-0.0357471 0.0585571 -2.72457e-21)
(-0.0344498 0.0654654 0)
(-0.0176667 0.0614979 5.53825e-21)
(0.0128173 0.0517534 -4.91333e-21)
(0.0557483 0.0391897 0)
(0.110039 0.0255214 0)
(0.17399 0.0117493 0)
(0.243832 -0.00211515 4.89294e-21)
(0.34203 -0.00521275 9.39605e-21)
(-0.0228809 0.0310654 2.53782e-21)
(-0.0361119 0.0541377 -2.37726e-21)
(-0.023695 0.0572344 -4.5757e-21)
(0.0108418 0.0498872 3.35919e-22)
(0.0650545 0.0376668 -4.71672e-21)
(0.136758 0.0237837 -4.75822e-21)
(0.223535 0.0101928 -4.81033e-21)
(0.322264 -0.00164538 -4.89047e-21)
(0.421635 -0.0154815 -4.89239e-21)
(0.567868 -0.0148522 5.39307e-21)
(-0.0254585 0.0293748 5.4029e-21)
(-0.0316334 0.0462075 2.43093e-21)
(-0.00140175 0.0441019 9.02881e-21)
(0.0596586 0.0329569 4.65053e-21)
(0.147768 0.0188108 2.82977e-22)
(0.258286 0.00508748 5.05627e-21)
(0.385527 -0.00614961 -4.5089e-21)
(0.522652 -0.013145 4.88988e-21)
(0.653876 -0.0222714 -4.92479e-21)
(0.834903 -0.0134621 1.02628e-20)
(-0.0264173 0.0263722 -3.3164e-21)
(-0.019029 0.0347708 0)
(0.0384911 0.0268174 -3.96428e-21)
(0.137334 0.012595 4.21291e-23)
(0.270024 -0.00151824 4.38361e-22)
(0.42636 -0.0122615 -4.82625e-21)
(0.595216 -0.0178949 1.35834e-20)
(0.762624 -0.0189665 0)
(0.92404 -0.0180277 4.92413e-21)
(1.09518 -0.00227978 0)
(-0.14733 0.00852941 0)
(-0.157796 0.00845584 4.64442e-22)
(-0.168037 0.00818963 -9.16826e-22)
(-0.177958 0.00788006 3.96728e-22)
(-0.187571 0.00754475 0)
(-0.196838 0.00718226 -3.95769e-22)
(-0.205717 0.00679089 3.9773e-22)
(-0.214165 0.00637028 0)
(-0.222138 0.00592269 0)
(-0.229595 0.00545356 -3.93418e-23)
(-0.236503 0.00497181 0)
(-0.242839 0.00448988 0)
(-0.248601 0.00402366 0)
(-0.253809 0.00359206 0)
(-0.258497 0.00321543 3.82011e-23)
(-0.262719 0.00291263 -3.8399e-23)
(-0.266612 0.00270013 0)
(-0.27051 0.00259433 6.81092e-24)
(-0.274616 0.00259485 -6.84674e-24)
(-0.27768 0.00263237 0)
(-0.121859 0.0238631 0)
(-0.130735 0.02369 -1.18757e-22)
(-0.139359 0.0230892 0)
(-0.147776 0.0223587 -1.68606e-21)
(-0.156107 0.0215434 1.64159e-21)
(-0.164319 0.0206427 -1.03132e-22)
(-0.172362 0.0196502 7.51016e-22)
(-0.180189 0.0185625 -1.55049e-21)
(-0.187754 0.0173831 1.27461e-21)
(-0.195005 0.0161245 -6.96848e-22)
(-0.201896 0.014809 -5.44885e-22)
(-0.208386 0.0134696 9.694e-22)
(-0.214446 0.01215 -4.89651e-22)
(-0.220063 0.0109044 -2.3417e-22)
(-0.225239 0.00979373 1.84651e-22)
(-0.229983 0.00887879 -3.47931e-23)
(-0.234379 0.00821386 -2.67858e-23)
(-0.238737 0.00785149 -2.73592e-23)
(-0.243347 0.00781087 2.74917e-23)
(-0.246951 0.00792892 -2.09959e-24)
(-0.0739788 0.0345717 1.21745e-22)
(-0.0800079 0.0340511 1.18964e-22)
(-0.0854536 0.0336633 1.1808e-22)
(-0.0909145 0.032983 0)
(-0.096607 0.0321723 1.91701e-21)
(-0.102531 0.0312239 -1.49649e-21)
(-0.108642 0.0301161 0)
(-0.114898 0.0288377 1.86622e-22)
(-0.121255 0.0273871 8.57604e-23)
(-0.127663 0.0257736 -1.06093e-21)
(-0.134069 0.0240207 1.18651e-22)
(-0.140415 0.0221685 1.24456e-21)
(-0.146642 0.0202749 5.94954e-23)
(-0.152697 0.018417 5.0073e-23)
(-0.158528 0.0166897 4.37098e-23)
(-0.16408 0.0151975 -8.87412e-23)
(-0.169335 0.0140413 8.73014e-23)
(-0.174519 0.0133255 9.08811e-23)
(-0.180028 0.0131543 1.57139e-23)
(-0.184643 0.0133931 -1.88022e-24)
(-0.00688853 0.0367956 3.79464e-21)
(-0.0101351 0.0373602 -4.9788e-23)
(-0.0109255 0.0375548 -2.38401e-22)
(-0.0125494 0.0373223 -3.78312e-21)
(-0.0145092 0.0370678 -3.40356e-22)
(-0.0170141 0.0366681 -1.05643e-22)
(-0.0200409 0.0360562 2.95608e-21)
(-0.0235568 0.0352122 -1.78518e-21)
(-0.0275425 0.0341274 -1.48856e-21)
(-0.0319757 0.0327985 1.35496e-21)
(-0.0368236 0.0312351 -1.21903e-22)
(-0.0420425 0.0294658 -1.3578e-21)
(-0.0475779 0.0275409 -5.90007e-23)
(-0.0533655 0.0255353 -4.93577e-22)
(-0.0593286 0.0235517 3.43116e-22)
(-0.0653657 0.0217177 2.5477e-22)
(-0.0713583 0.02017 -2.24876e-22)
(-0.0773576 0.0190599 0)
(-0.0838098 0.0186118 -3.16155e-23)
(-0.0898923 0.018917 -1.9484e-24)
(0.0798837 0.0306719 -8.63105e-21)
(0.08141 0.0333527 3.76038e-21)
(0.0828328 0.0339179 -4.02335e-21)
(0.0850384 0.0343937 0)
(0.0869408 0.0350123 2.29862e-22)
(0.088109 0.0355426 3.51901e-21)
(0.0885968 0.0358456 1.93451e-23)
(0.0884568 0.0358954 -2.08428e-22)
(0.0876726 0.0356868 -3.13661e-21)
(0.0862139 0.035205 -1.69752e-22)
(0.0840633 0.0344403 0)
(0.0812167 0.0334004 1.39371e-22)
(0.0776826 0.0321134 0)
(0.0734846 0.0306296 1.07025e-22)
(0.0686661 0.0290256 0)
(0.0633003 0.0274102 0)
(0.0575208 0.0259119 -5.68529e-23)
(0.0514407 0.0246639 6.41476e-23)
(0.0447149 0.0238623 -5.63029e-23)
(0.0372589 0.0238732 1.36725e-23)
(0.198007 0.0193372 0)
(0.201847 0.0232263 2.57871e-22)
(0.203758 0.0244976 8.29516e-21)
(0.207606 0.0256029 -8.031e-21)
(0.211829 0.0270546 2.55956e-22)
(0.21542 0.0285007 0)
(0.218403 0.029723 3.55059e-21)
(0.22091 0.0307155 -6.67024e-21)
(0.222906 0.0314969 3.55368e-21)
(0.224301 0.0320493 1.95496e-22)
(0.225019 0.0323481 1.79615e-22)
(0.225001 0.0323846 1.62788e-22)
(0.224197 0.0321673 0)
(0.222564 0.0317208 -7.61059e-22)
(0.220079 0.0310876 1.73752e-21)
(0.216739 0.0303383 -7.41444e-22)
(0.212597 0.0295649 6.94466e-23)
(0.207733 0.0288699 4.95236e-23)
(0.201984 0.0282863 -1.62791e-23)
(0.194418 0.0282704 1.63999e-23)
(0.363618 0.00627387 -9.74136e-21)
(0.366777 0.0115262 0)
(0.366006 0.0129612 2.76501e-22)
(0.368249 0.0143916 -5.41091e-22)
(0.371988 0.0164603 -5.2565e-22)
(0.375522 0.0185008 -2.60176e-22)
(0.378739 0.0202708 -2.49957e-22)
(0.381855 0.0218664 3.35782e-21)
(0.38483 0.0233502 -4.00631e-21)
(0.387512 0.024701 -3.50232e-21)
(0.389781 0.0258862 2.91478e-21)
(0.391545 0.0268919 -3.36766e-22)
(0.392714 0.0277156 1.12739e-21)
(0.3932 0.0283669 -2.74367e-22)
(0.392933 0.0288615 -1.19821e-21)
(0.391836 0.0292453 -9.84443e-23)
(0.389911 0.0295607 1.03408e-22)
(0.387052 0.0299295 -1.30714e-22)
(0.383607 0.0302756 -1.99346e-22)
(0.377217 0.0311116 -1.00141e-23)
(0.584066 -0.00180144 0)
(0.583779 0.00332412 8.92325e-21)
(0.578606 0.0036581 -9.16164e-21)
(0.577228 0.00491858 2.77761e-22)
(0.578195 0.00718013 5.51896e-22)
(0.579412 0.00925286 2.59948e-22)
(0.580708 0.0110267 5.12787e-22)
(0.582301 0.0127587 0)
(0.584101 0.0145259 2.22917e-22)
(0.585911 0.0162819 2.0757e-22)
(0.587604 0.0179832 2.06484e-22)
(0.589089 0.0196128 3.62182e-22)
(0.590289 0.0211574 0)
(0.591097 0.0226188 0)
(0.591464 0.0239889 1.16327e-22)
(0.591246 0.0253123 9.35066e-22)
(0.590558 0.0265737 -6.52796e-22)
(0.588927 0.0279444 6.19669e-23)
(0.587488 0.0292338 1.17879e-22)
(0.582879 0.0312822 -3.65646e-23)
(0.8425 0.000824626 -1.06828e-20)
(0.839162 0.00329691 0)
(0.832382 0.00125356 0)
(0.829171 0.00161031 9.38228e-21)
(0.827782 0.00312584 -4.73767e-22)
(0.826474 0.00442112 -1.78846e-20)
(0.825286 0.00561577 8.50064e-21)
(0.824404 0.00700166 0)
(0.823711 0.0085867 0)
(0.823051 0.0102965 0)
(0.822374 0.0120854 -9.44513e-23)
(0.821646 0.0139324 -2.85692e-22)
(0.82087 0.0158024 -2.62113e-21)
(0.819949 0.017689 2.52334e-21)
(0.818958 0.0195479 -9.71054e-22)
(0.817633 0.0214377 8.59784e-22)
(0.816401 0.0232538 0)
(0.814321 0.0252778 -2.66231e-23)
(0.813272 0.0269688 -3.69462e-23)
(0.80945 0.0299304 0)
(1.10926 0.00411863 1.48133e-22)
(1.1105 -0.000835761 9.43151e-21)
(1.10829 -0.00327737 -9.33347e-21)
(1.10633 -0.00186796 0)
(1.1035 0.000136964 -9.40606e-21)
(1.09955 0.00186958 1.84858e-20)
(1.09518 0.00367133 -9.08286e-21)
(1.09082 0.00566199 0)
(1.08651 0.00773755 -3.9883e-21)
(1.08225 0.00982969 7.66922e-21)
(1.07811 0.0119155 -3.79153e-21)
(1.07409 0.0139949 9.83236e-23)
(1.0703 0.0160371 0)
(1.0666 0.0180645 2.50793e-21)
(1.06326 0.0200095 -3.4395e-21)
(1.0598 0.0219948 1.02286e-21)
(1.05703 0.023792 6.46626e-22)
(1.05357 0.0258942 -4.51983e-22)
(1.05185 0.0273351 -2.18997e-22)
(1.04787 0.030193 0)
(1.39926 0.0115523 0)
(1.38217 0.00794935 0)
(1.36944 0.00659407 0)
(1.35776 0.00662491 0)
(1.34676 0.00705313 0)
(1.33678 0.00776728 0)
(1.32791 0.00880469 0)
(1.32002 0.0100895 0)
(1.31293 0.0115408 0)
(1.30645 0.013119 0)
(1.30053 0.0147862 0)
(1.29503 0.0165288 0)
(1.29004 0.0182942 0)
(1.28527 0.0201177 0)
(1.2811 0.0218878 0)
(1.27686 0.023783 0)
(1.27358 0.0254528 0)
(1.26958 0.0275422 0)
(1.26758 0.0288391 0)
(1.26339 0.0315464 0)
(1.5362 0.0215147 0)
(1.52892 0.0213736 0)
(1.52288 0.0204035 0)
(1.51683 0.0191779 0)
(1.51051 0.0183156 0)
(1.50426 0.0179743 0)
(1.49833 0.0180865 0)
(1.4928 0.0185419 0)
(1.48764 0.0192601 0)
(1.4828 0.0201897 0)
(1.4783 0.021283 0)
(1.47403 0.0225141 0)
(1.47012 0.0238192 0)
(1.46632 0.0252253 0)
(1.46301 0.026604 0)
(1.45954 0.0281328 0)
(1.45692 0.0294454 0)
(1.45357 0.0311445 0)
(1.45199 0.0321306 0)
(1.44832 0.0341835 0)
(1.63767 0.0258867 0)
(1.63403 0.0246046 0)
(1.63082 0.0235945 0)
(1.62798 0.0225404 0)
(1.62527 0.0217715 0)
(1.62265 0.0214568 0)
(1.62014 0.0215575 0)
(1.61781 0.0219669 0)
(1.61565 0.0226094 0)
(1.61366 0.0234337 0)
(1.61182 0.0244043 0)
(1.6101 0.025499 0)
(1.60855 0.0266638 0)
(1.60708 0.0279232 0)
(1.60583 0.0291538 0)
(1.60455 0.0305189 0)
(1.60364 0.0316743 0)
(1.60249 0.0331547 0)
(1.60202 0.0339924 0)
(1.60087 0.0356891 0)
(1.72121 0.029075 0)
(1.72003 0.0267743 0)
(1.71844 0.0252559 0)
(1.71715 0.0240491 0)
(1.71626 0.0231623 0)
(1.71564 0.0226803 0)
(1.71517 0.0226017 0)
(1.71489 0.0228482 0)
(1.71475 0.0233478 0)
(1.71482 0.0240427 0)
(1.71498 0.0248918 0)
(1.71536 0.0258757 0)
(1.71576 0.0269333 0)
(1.71643 0.0281001 0)
(1.71699 0.0292325 0)
(1.71795 0.0305162 0)
(1.71859 0.0315722 0)
(1.71992 0.0329689 0)
(1.72043 0.0337134 0)
(1.72232 0.0353227 0)
(1.79732 0.0307029 0)
(1.79773 0.0277928 0)
(1.79738 0.025784 0)
(1.7971 0.0243366 0)
(1.7972 0.0232878 0)
(1.79766 0.0226163 0)
(1.79827 0.0223213 0)
(1.79911 0.0223568 0)
(1.80003 0.0226607 0)
(1.80125 0.0231815 0)
(1.80249 0.0238636 0)
(1.8041 0.0247023 0)
(1.80559 0.0256129 0)
(1.80761 0.0266646 0)
(1.80921 0.0276659 0)
(1.81171 0.0288641 0)
(1.81323 0.0297993 0)
(1.81639 0.0311377 0)
(1.81746 0.0317862 0)
(1.82167 0.0333646 0)
(1.87343 0.0308945 0)
(1.87468 0.0277218 0)
(1.87515 0.0254144 0)
(1.87551 0.0237657 0)
(1.8761 0.0225739 0)
(1.87706 0.0217517 0)
(1.87817 0.0212757 0)
(1.87952 0.0211207 0)
(1.8809 0.0212319 0)
(1.88263 0.0215751 0)
(1.88431 0.022077 0)
(1.88648 0.0227557 0)
(1.88838 0.0234955 0)
(1.89106 0.0244084 0)
(1.89305 0.0252504 0)
(1.89634 0.0263351 0)
(1.89817 0.0271276 0)
(1.90232 0.0283775 0)
(1.90357 0.0289225 0)
(1.90903 0.030426 0)
(1.95252 0.0302333 0)
(1.95418 0.0270619 0)
(1.9551 0.0246358 0)
(1.95578 0.0228451 0)
(1.95657 0.0215258 0)
(1.95769 0.0205763 0)
(1.95893 0.0199491 0)
(1.96045 0.0196277 0)
(1.96194 0.019559 0)
(1.96382 0.019729 0)
(1.96556 0.0200506 0)
(1.96789 0.0205632 0)
(1.96984 0.0211256 0)
(1.97271 0.021883 0)
(1.97472 0.0225566 0)
(1.97827 0.0235004 0)
(1.9801 0.0241453 0)
(1.98459 0.0252662 0)
(1.98581 0.0257096 0)
(1.99171 0.0270786 0)
(2.03378 0.0292175 0)
(2.03566 0.0261669 0)
(2.03682 0.0237175 0)
(2.03771 0.0218335 0)
(2.0386 0.0204059 0)
(2.03977 0.0193457 0)
(2.04102 0.01859 0)
(2.04256 0.0181234 0)
(2.04403 0.0178916 0)
(2.04592 0.017897 0)
(2.04759 0.0180463 0)
(2.04992 0.0183929 0)
(2.05177 0.0187834 0)
(2.05464 0.0193771 0)
(2.05653 0.0198876 0)
(2.06009 0.0206723 0)
(2.0618 0.0211771 0)
(2.06631 0.0221391 0)
(2.06742 0.0224899 0)
(2.07332 0.0236812 0)
(2.11436 0.027999 0)
(2.11644 0.0250908 0)
(2.11787 0.0226618 0)
(2.11902 0.0207283 0)
(2.12008 0.0192236 0)
(2.12138 0.0180762 0)
(2.1227 0.0172164 0)
(2.12432 0.0166278 0)
(2.12582 0.0162553 0)
(2.12775 0.0161112 0)
(2.12941 0.0161043 0)
(2.13175 0.0162925 0)
(2.13354 0.0165249 0)
(2.13641 0.0169565 0)
(2.13821 0.0173168 0)
(2.14176 0.0179369 0)
(2.14336 0.0183145 0)
(2.14783 0.0191046 0)
(2.14886 0.0193736 0)
(2.15467 0.0203678 0)
(2.19128 0.0264431 0)
(2.19371 0.0236814 0)
(2.19557 0.0213062 0)
(2.19717 0.0193684 0)
(2.1986 0.0178276 0)
(2.20023 0.0166253 0)
(2.20181 0.0156912 0)
(2.20368 0.0150082 0)
(2.20538 0.0145228 0)
(2.20752 0.0142519 0)
(2.20931 0.0141115 0)
(2.21182 0.0141579 0)
(2.21369 0.0142521 0)
(2.21669 0.0145334 0)
(2.21853 0.0147616 0)
(2.22218 0.0152245 0)
(2.22377 0.0154905 0)
(2.22832 0.0161125 0)
(2.22933 0.0163106 0)
(2.23516 0.017111 0)
(2.26316 0.0242746 0)
(2.26619 0.0216826 0)
(2.26872 0.0194014 0)
(2.27101 0.0175081 0)
(2.27307 0.0159777 0)
(2.27527 0.0147612 0)
(2.27734 0.0137895 0)
(2.27969 0.0130472 0)
(2.28179 0.0124832 0)
(2.28434 0.0121175 0)
(2.28646 0.011874 0)
(2.28932 0.0118057 0)
(2.29144 0.011788 0)
(2.29474 0.0119428 0)
(2.29676 0.0120618 0)
(2.30067 0.0123889 0)
(2.30238 0.0125617 0)
(2.30716 0.0130363 0)
(2.30822 0.013175 0)
(2.31425 0.0138049 0)
(2.33184 0.0212048 0)
(2.33563 0.018827 0)
(2.33902 0.0166928 0)
(2.34219 0.0148998 0)
(2.34505 0.0134328 0)
(2.34799 0.0122513 0)
(2.3507 0.0112876 0)
(2.35367 0.0105311 0)
(2.35632 0.00993181 0)
(2.35941 0.00951434 0)
(2.36199 0.00920667 0)
(2.36531 0.00906313 0)
(2.36779 0.00896734 0)
(2.37148 0.00903247 0)
(2.37377 0.00907089 0)
(2.37802 0.00929782 0)
(2.37991 0.00939944 0)
(2.38499 0.0097628 0)
(2.38613 0.00985499 0)
(2.39245 0.0103553 0)
(2.40285 0.017094 0)
(2.40733 0.0149883 0)
(2.41151 0.0130678 0)
(2.41549 0.0114399 0)
(2.4191 0.0100949 0)
(2.42271 0.00900444 0)
(2.42602 0.00810179 0)
(2.42954 0.00738489 0)
(2.43267 0.00680055 0)
(2.43622 0.00638305 0)
(2.43918 0.00605712 0)
(2.44288 0.00588668 0)
(2.44565 0.00575275 0)
(2.44963 0.00577407 0)
(2.45212 0.00576521 0)
(2.4566 0.00593683 0)
(2.45861 0.00599233 0)
(2.46385 0.00629051 0)
(2.46506 0.00635044 0)
(2.47147 0.00677172 0)
(2.48364 0.0121813 0)
(2.48836 0.0104008 0)
(2.49287 0.00875964 0)
(2.49722 0.00735782 0)
(2.50116 0.00618783 0)
(2.50504 0.00523955 0)
(2.50855 0.00444664 0)
(2.51223 0.00382011 0)
(2.51549 0.00329863 0)
(2.51912 0.00293035 0)
(2.52214 0.00262967 0)
(2.52584 0.00247853 0)
(2.52861 0.00234438 0)
(2.53252 0.00236564 0)
(2.53496 0.00234105 0)
(2.53927 0.00249978 0)
(2.54121 0.00253285 0)
(2.54619 0.00280865 0)
(2.54734 0.0028498 0)
(2.55337 0.00323845 0)
(2.57888 0.00718573 0)
(2.58307 0.00575368 0)
(2.58716 0.00442709 0)
(2.59112 0.0032857 0)
(2.59469 0.00231957 0)
(2.59815 0.00154003 0)
(2.60124 0.000884118 0)
(2.60444 0.000376774 0)
(2.60725 -5.29317e-05 0)
(2.61036 -0.000342044 0)
(2.61293 -0.000589887 0)
(2.61605 -0.000693633 0)
(2.61837 -0.00080356 0)
(2.62163 -0.000756406 0)
(2.62364 -0.000776101 0)
(2.62722 -0.000606004 0)
(2.6288 -0.000579556 0)
(2.6329 -0.0003027 0)
(2.63383 -0.000270989 0)
(2.63876 0.000109574 0)
(2.68547 0.00304416 0)
(2.68846 0.00194172 0)
(2.69142 0.00091704 0)
(2.69428 2.8716e-05 0)
(2.69681 -0.000736428 0)
(2.6992 -0.00134992 0)
(2.70128 -0.00187028 0)
(2.7034 -0.00225982 0)
(2.70522 -0.00259635 0)
(2.70725 -0.00280609 0)
(2.70888 -0.00299751 0)
(2.71089 -0.00305329 0)
(2.71232 -0.00313456 0)
(2.71441 -0.00306202 0)
(2.71564 -0.00307211 0)
(2.71794 -0.00289288 0)
(2.7189 -0.00286848 0)
(2.72154 -0.00259486 0)
(2.7221 -0.00256911 0)
(2.72529 -0.00220272 0)
(2.79216 0.000356496 0)
(2.7937 -0.00046137 0)
(2.79526 -0.00122 0)
(2.79674 -0.00188318 0)
(2.79795 -0.00246675 0)
(2.79899 -0.00293259 0)
(2.7998 -0.00333288 0)
(2.80058 -0.00362292 0)
(2.80117 -0.00387963 0)
(2.80184 -0.00402747 0)
(2.80231 -0.00417249 0)
(2.80294 -0.00419741 0)
(2.80331 -0.00425746 0)
(2.80396 -0.00417789 0)
(2.80425 -0.00418338 0)
(2.80499 -0.00401561 0)
(2.80521 -0.00399572 0)
(2.80611 -0.00374907 0)
(2.80623 -0.00372953 0)
(2.80735 -0.00340493 0)
(2.88505 -0.000897686 0)
(2.88536 -0.00147428 0)
(2.8857 -0.00200052 0)
(2.88592 -0.00245998 0)
(2.88595 -0.00287174 0)
(2.88576 -0.00319947 0)
(2.88542 -0.00348443 0)
(2.88495 -0.00368589 0)
(2.88442 -0.00386839 0)
(2.88383 -0.00396666 0)
(2.88323 -0.00406978 0)
(2.88256 -0.00407838 0)
(2.88194 -0.00412101 0)
(2.88123 -0.00405216 0)
(2.88066 -0.00405586 0)
(2.87992 -0.00392094 0)
(2.87946 -0.00390692 0)
(2.87869 -0.00371255 0)
(2.87842 -0.00369913 0)
(2.87757 -0.00344572 0)
(2.95324 -0.000967098 0)
(2.95266 -0.00134669 0)
(2.95213 -0.00167803 0)
(2.95145 -0.00195733 0)
(2.9506 -0.00220538 0)
(2.94951 -0.00240063 0)
(2.94831 -0.00257108 0)
(2.94692 -0.00268916 0)
(2.94557 -0.00279744 0)
(2.94402 -0.00285273 0)
(2.94263 -0.0029135 0)
(2.94098 -0.0029145 0)
(2.93963 -0.00293905 0)
(2.93788 -0.00289269 0)
(2.93666 -0.00289383 0)
(2.9348 -0.0028069 0)
(2.93383 -0.00279756 0)
(2.93179 -0.00267391 0)
(2.93122 -0.0026653 0)
(2.92887 -0.00250457 0)
(2.9894 -0.000232036 0)
(2.98835 -0.000403184 0)
(2.98735 -0.000545132 0)
(2.98618 -0.000659692 0)
(2.98488 -0.000758173 0)
(2.98328 -0.000835275 0)
(2.98163 -0.000901656 0)
(2.97973 -0.000948285 0)
(2.97793 -0.000990235 0)
(2.97587 -0.00101303 0)
(2.97406 -0.00103692 0)
(2.97187 -0.00103984 0)
(2.97014 -0.0010502 0)
(2.96782 -0.00103613 0)
(2.96626 -0.0010377 0)
(2.96379 -0.00100932 0)
(2.96256 -0.00100674 0)
(2.95983 -0.000965604 0)
(2.95911 -0.000962874 0)
(2.95595 -0.00090887 0)
(1.78233 0.123127 1.87775e-21)
(1.78964 0.110906 0)
(1.78691 0.0981097 -3.19404e-22)
(1.77568 0.0851499 -9.6276e-21)
(1.75457 0.0721552 1.51948e-20)
(1.72758 0.0602172 0)
(1.68984 0.0477649 1.20557e-20)
(1.64007 0.0392808 0)
(1.5929 0.0249119 1.07226e-20)
(1.42437 0.0134069 -1.63607e-22)
(1.84053 0.113532 -2.1486e-21)
(1.84603 0.103248 4.14438e-22)
(1.84231 0.0922411 -4.1527e-22)
(1.82979 0.0821599 -1.08501e-21)
(1.81031 0.0708873 -9.1343e-21)
(1.77993 0.0623648 -5.37511e-22)
(1.75512 0.0512417 0)
(1.69269 0.0447222 -1.33375e-20)
(1.6903 0.0368398 0)
(1.54421 0.0222291 -1.06312e-20)
(1.9041 0.103923 4.42898e-21)
(1.90683 0.0952755 0)
(1.90394 0.0853421 -3.90328e-22)
(1.88745 0.0772336 -6.31508e-22)
(1.87312 0.0674347 9.68386e-21)
(1.83406 0.0607023 0)
(1.82279 0.0526196 1.6301e-20)
(1.74867 0.0451955 1.37435e-20)
(1.7585 0.0423055 0)
(1.64121 0.0291535 1.05219e-20)
(1.97 0.0954499 -2.00722e-21)
(1.9696 0.0879784 8.126e-21)
(1.96971 0.0793269 0)
(1.94864 0.0722276 1.21578e-20)
(1.94073 0.0643448 6.54236e-22)
(1.89464 0.057485 -1.23491e-21)
(1.88988 0.0522921 -1.56347e-20)
(1.81428 0.0436566 -5.15111e-22)
(1.81782 0.042203 -1.50111e-20)
(1.72152 0.0329639 0)
(2.0354 0.0879801 0)
(2.03247 0.0812458 -7.92832e-21)
(2.03604 0.0741667 -8.8257e-21)
(2.01248 0.0673929 1.25109e-21)
(2.00909 0.0614965 -8.00003e-22)
(1.96186 0.0541761 -6.31094e-22)
(1.95692 0.0505836 -1.87393e-20)
(1.88702 0.0424366 -1.07116e-21)
(1.88217 0.0404488 -8.32457e-22)
(1.79594 0.0345786 1.42418e-20)
(2.09776 0.0811152 2.57797e-21)
(2.09378 0.074886 5.36024e-22)
(2.09979 0.0692702 -1.38777e-21)
(2.0769 0.0627604 4.77264e-22)
(2.07562 0.0582697 -1.32473e-20)
(2.03212 0.0513129 0)
(2.02555 0.0481604 2.04988e-20)
(1.96265 0.0417161 -6.08203e-22)
(1.95424 0.0388312 3.34939e-20)
(1.87152 0.0347566 -2.94252e-20)
(2.15518 0.0744948 -2.59065e-21)
(2.15166 0.0688102 -4.79464e-21)
(2.15912 0.0642507 8.30175e-21)
(2.13907 0.058353 -1.45891e-20)
(2.13915 0.0545832 -1.60034e-21)
(2.10111 0.0487379 -1.2491e-20)
(2.0951 0.0455189 6.49775e-22)
(2.03793 0.0406985 -1.23294e-21)
(2.03055 0.03728 -1.66609e-20)
(1.95046 0.0339874 1.51741e-20)
(2.20697 0.0678056 0)
(2.20476 0.0628191 1.03593e-20)
(2.21339 0.0589468 -1.10585e-21)
(2.19674 0.0539659 7.97457e-21)
(2.19878 0.0505671 -6.3459e-22)
(2.16585 0.0459725 2.48498e-20)
(2.16278 0.0427315 -1.11496e-20)
(2.11073 0.0389799 0)
(2.10667 0.0355626 0)
(2.03164 0.0327379 0)
(2.254 0.0608382 0)
(2.25326 0.0566254 -9.49172e-21)
(2.26313 0.0532703 -6.00962e-22)
(2.24946 0.0492549 8.10571e-21)
(2.25393 0.0462095 1.46465e-20)
(2.22535 0.0426423 -1.39264e-20)
(2.22599 0.0396594 1.34058e-20)
(2.17959 0.0366437 -7.19036e-22)
(2.17912 0.0336071 0)
(2.11209 0.0312588 9.16731e-21)
(2.29911 0.0534644 3.4113e-22)
(2.29966 0.0499782 5.41513e-21)
(2.31054 0.0471107 8.37966e-21)
(2.29915 0.0439378 -4.61159e-22)
(2.30552 0.0413454 1.01522e-21)
(2.28071 0.0385813 -1.50659e-20)
(2.2841 0.0360811 1.4534e-20)
(2.24395 0.0337459 -7.49879e-22)
(2.24599 0.0312042 0)
(2.1887 0.0294573 -1.86584e-20)
(2.34725 0.0457334 0)
(2.34878 0.0428493 5.3724e-21)
(2.35991 0.0404419 2.12018e-22)
(2.35012 0.0379547 0)
(2.35694 0.0358397 0)
(2.33525 0.0337611 1.3357e-20)
(2.3394 0.0317646 -1.20591e-20)
(2.30513 0.0301476 -7.13313e-22)
(2.30801 0.0280278 3.80627e-22)
(2.26006 0.0270328 9.80632e-21)
(2.40467 0.0375739 0)
(2.4067 0.0352834 -1.02292e-20)
(2.41706 0.0333071 -1.10953e-20)
(2.40815 0.0314143 1.67604e-21)
(2.41384 0.0296882 -1.07459e-21)
(2.39422 0.0282376 -8.95331e-22)
(2.39721 0.0265965 1.69578e-21)
(2.36711 0.0256987 1.09059e-20)
(2.36931 0.0238621 1.05959e-21)
(2.32802 0.0236742 -3.28324e-22)
(2.47689 0.0293698 0)
(2.47871 0.0276655 5.51014e-21)
(2.48747 0.0260372 -6.09132e-22)
(2.47864 0.0246627 6.04102e-22)
(2.48232 0.0231679 0)
(2.46347 0.0222518 0)
(2.46437 0.0207722 0)
(2.436 0.0204675 -1.23862e-20)
(2.43687 0.0187921 1.16155e-20)
(2.39837 0.019244 0)
(2.56514 0.021952 0)
(2.56599 0.0206953 3.51551e-21)
(2.57295 0.0192864 4.53328e-21)
(2.56363 0.0182909 5.89047e-21)
(2.56558 0.0168954 -1.12116e-21)
(2.54659 0.0163193 6.9494e-21)
(2.54593 0.0148843 -6.25993e-21)
(2.51753 0.0148807 0)
(2.51743 0.0133138 6.58033e-22)
(2.47895 0.0139985 -1.10363e-20)
(2.66403 0.0158596 -7.80957e-22)
(2.66355 0.0148961 -2.85055e-21)
(2.66913 0.013662 -5.86006e-21)
(2.65943 0.0128689 -4.14351e-21)
(2.66072 0.0115666 0)
(2.6419 0.0110775 -8.8465e-21)
(2.64102 0.00971477 8.97923e-21)
(2.61295 0.0096502 -8.522e-22)
(2.61274 0.00822847 -5.74526e-21)
(2.57474 0.00867775 1.60242e-20)
(2.76248 0.011328 7.84965e-22)
(2.76112 0.0105085 -2.21471e-21)
(2.76594 0.00948069 1.98543e-21)
(2.75688 0.00873176 -4.90185e-21)
(2.75851 0.00761468 0)
(2.74153 0.00701921 0)
(2.74148 0.00584424 8.84866e-22)
(2.71626 0.00548356 -8.36675e-21)
(2.71648 0.00428347 -5.18693e-21)
(2.68258 0.00423936 -5.37992e-21)
(2.84887 0.00802907 0)
(2.84774 0.00729169 3.63538e-21)
(2.85218 0.00652904 -1.33204e-21)
(2.8452 0.0057799 4.36722e-21)
(2.84742 0.00494324 1.1712e-21)
(2.83436 0.00422077 -9.88035e-22)
(2.83523 0.00332636 1.86175e-21)
(2.8159 0.00268742 5.79642e-21)
(2.81644 0.00175451 0)
(2.79073 0.00128688 0)
(2.91688 0.00530502 0)
(2.91685 0.00472594 1.48641e-21)
(2.9208 0.00427541 -2.72046e-21)
(2.91681 0.00362655 0)
(2.91913 0.00310699 -2.28566e-21)
(2.91113 0.00240197 -9.98623e-22)
(2.91226 0.00180656 -2.79587e-21)
(2.90027 0.0010916 -8.18905e-22)
(2.90067 0.00042366 4.24514e-22)
(2.88484 -0.000213482 3.58685e-22)
(2.96537 0.00280859 0)
(2.96633 0.00252178 -1.49352e-21)
(2.9694 0.0023904 -1.35228e-21)
(2.96804 0.00201072 1.8688e-21)
(2.96986 0.00179688 1.09718e-21)
(2.96628 0.00131781 1.04455e-21)
(2.96703 0.00100225 4.67214e-21)
(2.9614 0.000456897 -3.41662e-21)
(2.96129 3.83659e-05 7.96407e-22)
(2.95389 -0.000505499 0)
(2.9919 0.000655022 0)
(2.99323 0.000676027 7.30719e-22)
(2.99549 0.00076022 -6.98822e-22)
(2.99552 0.000723607 6.60935e-22)
(2.99675 0.000742779 0)
(2.99562 0.000625525 -1.04971e-21)
(2.9959 0.000560111 9.1858e-22)
(2.99383 0.000369331 8.20582e-22)
(2.99325 0.000216948 0)
(2.99055 -2.16034e-05 0)
(1.12237 0.226907 0)
(1.06119 0.247425 -5.53638e-20)
(1.01261 0.275446 0)
(0.973221 0.311902 -1.83437e-19)
(0.938823 0.35638 6.93227e-20)
(0.906974 0.410501 2.15797e-21)
(0.874289 0.474374 6.17099e-20)
(0.82289 0.536257 -6.77871e-21)
(0.696164 0.542828 0)
(0.384923 0.331566 6.54023e-20)
(1.21297 0.229633 1.01345e-19)
(1.15309 0.256121 5.53627e-20)
(1.10421 0.282821 -5.29094e-20)
(1.06331 0.318091 6.17667e-20)
(1.0286 0.362521 -5.35201e-20)
(0.998863 0.416661 7.1203e-21)
(0.969971 0.480065 -6.31254e-20)
(0.921049 0.54023 -1.26413e-19)
(0.786397 0.543272 -3.35761e-20)
(0.435359 0.326682 -9.58475e-20)
(1.29842 0.22846 -4.51263e-20)
(1.24271 0.257142 4.67832e-20)
(1.19478 0.283202 5.29078e-20)
(1.15257 0.317611 5.43384e-20)
(1.11729 0.361516 5.56515e-20)
(1.0893 0.414795 5.65929e-20)
(1.06364 0.476379 8.49041e-21)
(1.016 0.532759 5.56357e-20)
(0.871561 0.530399 2.25362e-20)
(0.479898 0.311841 -2.40569e-20)
(1.38119 0.224751 9.01203e-20)
(1.32824 0.253885 -4.67813e-20)
(1.28115 0.279092 0)
(1.23835 0.312105 0)
(1.20295 0.354406 0)
(1.17646 0.40555 4.32821e-20)
(1.1531 0.463748 -3.77668e-20)
(1.10482 0.514048 0)
(0.94793 0.504399 1.66184e-20)
(0.515343 0.287439 -3.4165e-20)
(1.45888 0.218265 -1.70308e-20)
(1.40736 0.246554 6.1324e-20)