/*--------------------------------*- C++ -*----------------------------------*\
| =========                 |                                                 |
| \\      /  F ield         | OpenFOAM: The Open Source CFD Toolbox           |
|  \\    /   O peration     | Version:  4.1                                   |
|   \\  /    A nd           | Web:      www.OpenFOAM.org                      |
|    \\/     M anipulation  |                                                 |
\*---------------------------------------------------------------------------*/
FoamFile
{
    version     2.0;
    format      ascii;
    class       volVectorField;
    location    "7.4";
    object      U;
}
// * * * * * * * * * * * * * * * * * * * * * * * * * * * * * * * * * * * * * //

dimensions      [0 1 -1 0 0 0 0];

internalField   nonuniform List<vector> 
2000
(
(-0.0394436 0.034043 5.52267e-20)
(-0.00881864 0.0361755 0)
(0.117147 0.0162756 8.91592e-20)
(0.321471 -0.0108776 4.01143e-20)
(0.579266 -0.0353903 -7.47334e-20)
(0.855087 -0.0535774 -1.01124e-19)
(1.1166 -0.0640002 3.19863e-20)
(1.33752 -0.0737046 0)
(1.52503 -0.0715564 -2.56035e-20)
(1.63368 -0.0883508 0)
(-0.0335398 0.0261855 -2.73794e-20)
(0.0402785 0.0123954 2.44664e-20)
(0.236261 -0.0133056 -9.37923e-20)
(0.518788 -0.0365401 -1.2584e-19)
(0.83557 -0.0503234 -9.42579e-22)
(1.13424 -0.0553282 3.32952e-20)
(1.38145 -0.0549717 -3.1606e-20)
(1.56696 -0.0545148 -2.77503e-20)
(1.69395 -0.0504262 2.56028e-20)
(1.75902 -0.0611924 4.37069e-20)
(-0.0199914 0.0162303 2.93923e-20)
(0.115985 -0.0126481 -2.75305e-20)
(0.398339 -0.0369339 4.71641e-20)
(0.754565 -0.0477114 -1.67351e-21)
(1.10109 -0.0462541 3.83211e-20)
(1.38371 -0.0390056 3.45143e-20)
(1.58609 -0.0314015 3.09938e-20)
(1.71545 -0.0275877 2.77502e-20)
(1.78949 -0.0246211 2.37149e-20)
(1.8316 -0.0333147 -2.0917e-20)
(0.00389851 0.00455987 -7.48592e-22)
(0.22296 -0.0353117 -2.92499e-20)
(0.598293 -0.047934 0)
(1.0034 -0.0401748 4.20435e-20)
(1.34027 -0.0245775 -4.09366e-20)
(1.57615 -0.0102009 0)
(1.72077 -0.00112181 0)
(1.79952 0.00177942 0)
(1.83997 0.00229739 -2.37163e-20)
(1.85409 -0.00652014 4.01473e-20)
(0.0408301 -0.00760291 6.8787e-20)
(0.362328 -0.04964 4.41048e-23)
(0.81967 -0.0407754 2.73895e-20)
(1.23558 -0.0143839 2.2167e-20)
(1.53056 0.0097464 2.02697e-20)
(1.70767 0.0252223 1.72036e-20)
(1.80034 0.0319029 0)
(1.84341 0.0321599 1.2384e-20)
(1.86083 0.0292486 -5.22922e-20)
(1.86934 0.0198351 6.83317e-20)
(0.092944 -0.0179652 -1.07707e-19)
(0.528753 -0.0488066 2.04739e-21)
(1.03909 -0.0138486 -5.43653e-20)
(1.43027 0.0258994 4.88374e-20)
(1.6679 0.0519976 -5.87901e-20)
(1.78966 0.0642615 1.89597e-20)
(1.84283 0.0666827 0)
(1.86242 0.0633109 -1.2385e-20)
(1.86963 0.0570993 1.05423e-20)
(1.87292 0.0478139 3.14682e-20)
(0.160895 -0.0233157 0)
(0.709434 -0.0280246 0)
(1.23625 0.0307413 -2.77479e-20)
(1.58011 0.0765323 2.58309e-20)
(1.75897 0.0993013 -1.8847e-20)
(1.83525 0.105734 1.76949e-20)
(1.86088 0.10289 2.52719e-20)
(1.8672 0.0955663 -2.38881e-20)
(1.8687 0.086306 -1.71363e-20)
(1.87113 0.0763898 8.20817e-21)
(0.24295 -0.0201906 2.09113e-20)
(0.887592 0.0135073 0)
(1.39967 0.0893998 -1.30827e-20)
(1.68666 0.134276 4.8728e-20)
(1.81279 0.14991 -3.06146e-20)
(1.85472 0.149 0)
(1.86274 0.140498 0)
(1.86177 0.129039 0)
(1.8614 0.116848 -1.46296e-20)
(1.86344 0.106068 1.39064e-20)
(0.334602 -0.00578763 -1.06951e-20)
(1.0483 0.0731022 -3.83591e-22)
(1.52526 0.158355 -1.49675e-20)
(1.75488 0.196673 5.74296e-21)
(1.83742 0.202619 5.46486e-21)
(1.85508 0.193616 7.8752e-21)
(1.85255 0.179263 0)
(1.84832 0.163577 -1.89553e-21)
(1.84738 0.148556 -7.2206e-21)
(1.84962 0.13595 5.52862e-21)
(0.429189 0.0213388 0)
(1.18198 0.14647 -9.1847e-21)
(1.61309 0.234027 0)
(1.79028 0.261752 -3.23021e-21)
(1.83895 0.25644 -2.98691e-21)
(1.84047 0.238999 -3.52021e-21)
(1.83229 0.218688 0)
(1.82704 0.198648 1.89572e-21)
(1.82661 0.180677 1.40402e-21)
(1.82951 0.165634 6.64058e-22)
(-0.010103 0.00956291 0)
(-0.0396434 0.0173397 -5.01643e-21)
(-0.0807519 0.0197708 0)
(-0.119844 0.0198907 -6.58011e-21)
(-0.154414 0.0189623 -2.08163e-21)
(-0.184303 0.0175825 3.89329e-21)
(-0.209664 0.0160738 -3.66652e-21)
(-0.230866 0.0146423 3.49434e-21)
(-0.248562 0.0134818 1.75738e-23)
(-0.264021 0.012816 3.12695e-21)
(-0.0116853 0.0274203 -1.58991e-20)
(-0.0403247 0.0500609 9.93805e-21)
(-0.0778396 0.0573281 -9.41127e-21)
(-0.112383 0.0577165 4.3631e-21)
(-0.141795 0.0548791 2.07066e-20)
(-0.165884 0.0505731 -7.77606e-21)
(-0.18473 0.0457597 0)
(-0.198551 0.0410975 -3.48257e-21)
(-0.207672 0.0372046 -3.29898e-21)
(-0.213688 0.0348032 0)
(-0.0145725 0.0417496 1.06049e-20)
(-0.0417728 0.0772748 0)
(-0.0728398 0.0891499 2.84366e-20)
(-0.0990969 0.0898499 -3.55518e-20)
(-0.119043 0.0850193 8.36849e-21)
(-0.132543 0.0774378 0)
(-0.139623 0.0686333 0)
(-0.140401 0.0597321 0)
(-0.134619 0.0518462 2.67984e-20)
(-0.123181 0.0463671 -2.54687e-20)
(-0.0182594 0.051187 0)
(-0.0440504 0.09646 -2.07891e-20)
(-0.0670111 0.112212 3.86177e-20)
(-0.0823969 0.113127 -1.80232e-20)
(-0.089692 0.10625 1.7053e-20)
(-0.0889919 0.0951477 -4.81871e-20)
(-0.0803432 0.0817014 -8.63134e-23)
(-0.0640535 0.0672401 2.87368e-20)
(-0.0399913 0.0534066 2.70699e-20)
(-0.00442552 0.0442108 -3.8561e-20)
(-0.0222627 0.0555779 2.22807e-20)
(-0.0471008 0.106511 -4.25579e-20)
(-0.0613869 0.124629 -1.40134e-22)
(-0.0642814 0.125228 1.53725e-22)
(-0.0564391 0.116141 1.72227e-20)
(-0.0383391 0.101462 -4.87685e-20)
(-0.0101467 0.0832389 0)
(0.0277391 0.062704 -1.45586e-20)
(0.0751196 0.041746 1.37439e-20)
(0.140879 0.0264359 -5.20015e-20)
(-0.0263049 0.0557931 -2.85885e-22)
(-0.0505943 0.107751 4.30565e-20)
(-0.056033 0.125877 1.98331e-20)
(-0.0449324 0.124873 1.89534e-20)
(-0.0190519 0.112946 1.73344e-20)
(0.0208277 0.0945464 1.63226e-20)
(0.0744363 0.0719352 0)
(0.141401 0.0464585 1.45573e-20)
(0.216524 0.0188086 4.07673e-20)
(0.327054 -0.0043747 -1.34684e-20)
(-0.0303613 0.0532726 5.93323e-23)
(-0.0536999 0.101731 2.21358e-20)
(-0.049137 0.116752 0)
(-0.0211659 0.112108 -3.71775e-20)
(0.0279383 0.0961688 3.51629e-20)
(0.0970751 0.0735995 0)
(0.185326 0.0469855 0)
(0.292909 0.0188364 0)
(0.400598 -0.0129231 -2.75904e-20)
(0.571169 -0.0405159 -5.18208e-20)
(-0.0343769 0.04942 -2.41813e-20)
(-0.0547509 0.090406 2.26512e-20)
(-0.03636 0.0990377 4.16915e-20)
(0.0149428 0.0886041 4.7594e-22)
(0.0967039 0.0675491 3.55222e-20)
(0.206774 0.0407854 3.31336e-20)
(0.341224 0.0111768 3.10403e-20)
(0.499225 -0.0167631 2.90767e-20)
(0.643252 -0.0483573 2.75864e-20)
(0.87254 -0.0725431 -2.53615e-20)
(-0.037982 0.045026 -7.56436e-20)
(-0.050705 0.0753208 -2.25476e-20)
(-0.0105315 0.0749998 -8.36291e-20)
(0.0755819 0.0574164 -3.84227e-20)
(0.203876 0.0314011 4.30391e-22)
(0.367875 0.00227789 -3.28524e-20)
(0.556814 -0.0265624 3.12321e-20)
(0.761279 -0.0512304 -2.90725e-20)
(0.942197 -0.0767804 2.71017e-20)
(1.19199 -0.0904154 -5.09854e-20)
(-0.0402092 0.0400942 5.08304e-20)
(-0.0371823 0.0572208 0)
(0.0374933 0.046725 4.25806e-20)
(0.174322 0.0225652 -6.46986e-23)
(0.363733 -0.00561874 5.56633e-22)
(0.588184 -0.0324813 3.31808e-20)
(0.826308 -0.0542686 -9.37811e-20)
(1.05435 -0.0728534 0)
(1.25848 -0.0852772 -2.7098e-20)
(1.46263 -0.091563 0)
(-0.278485 0.0124994 0)
(-0.293263 0.0109018 -3.01085e-21)
(-0.305614 0.00899192 6.00777e-21)
(-0.315489 0.00697323 -2.62276e-21)
(-0.322728 0.00483794 0)
(-0.327107 0.00257744 2.80046e-21)
(-0.328558 0.000264993 -2.81434e-21)
(-0.327023 -0.00220144 0)
(-0.322348 -0.00477702 0)
(-0.314346 -0.00743126 3.01058e-22)
(-0.302874 -0.0101436 0)
(-0.287809 -0.0129034 0)
(-0.269042 -0.0157166 0)
(-0.246464 -0.0186143 0)
(-0.219939 -0.0215896 -3.00112e-22)
(-0.18915 -0.0247421 3.01667e-22)
(-0.153833 -0.0282335 0)
(-0.115221 -0.0321126 -4.97211e-23)
(-0.0733617 -0.0349544 4.99829e-23)
(-0.000230239 -0.0346864 0)
(-0.220415 0.0338327 0)
(-0.231284 0.0292024 7.72706e-22)
(-0.239573 0.0236577 0)
(-0.24547 0.0177806 1.1525e-20)
(-0.249008 0.0116002 -1.12042e-20)
(-0.249842 0.0051514 7.31844e-22)
(-0.248085 -0.00177662 -5.48841e-21)
(-0.243677 -0.00906129 1.14578e-20)
(-0.236302 -0.0166125 -9.61552e-21)
(-0.225828 -0.0243737 5.32803e-21)
(-0.212149 -0.0322897 4.31381e-21)
(-0.195188 -0.0403186 -7.72075e-21)
(-0.174887 -0.0484512 3.93375e-21)
(-0.151114 -0.0568564 1.92248e-21)
(-0.123859 -0.0651916 -1.51054e-21)
(-0.0931295 -0.0738785 2.92699e-22)
(-0.0588484 -0.083245 2.24832e-22)
(-0.0212042 -0.0935881 2.23949e-22)
(0.0189948 -0.10324 -2.25035e-22)
(0.0811194 -0.106663 5.8302e-24)
(-0.117256 0.0450849 -7.90397e-22)
(-0.1208 0.0378056 -7.7406e-22)
(-0.121762 0.0292076 -7.84108e-22)
(-0.120448 0.0200243 0)
(-0.117125 0.010368 -1.34756e-20)
(-0.112011 5.66425e-05 1.05265e-20)
(-0.10485 -0.0109864 0)
(-0.0951669 -0.0225112 -1.3894e-21)
(-0.0829905 -0.0344588 -6.52411e-22)
(-0.0682266 -0.0467399 8.42317e-21)
(-0.0507971 -0.0592548 -7.5105e-22)
(-0.0306867 -0.0719035 -1.00775e-20)
(-0.00809508 -0.0846105 -4.97961e-22)
(0.0176331 -0.0972827 -4.1643e-22)
(0.0462914 -0.109962 -3.78861e-22)
(0.0771171 -0.122777 7.79148e-22)
(0.110236 -0.135933 -7.46671e-22)
(0.145258 -0.149848 -7.98082e-22)
(0.181469 -0.164075 -1.54636e-22)
(0.234 -0.175485 2.67929e-23)
(0.0163684 0.0414781 -2.47327e-20)
(0.0218369 0.0331362 2.01853e-22)
(0.0301926 0.0226383 1.05377e-21)
(0.0406337 0.0109796 2.52937e-20)
(0.0522528 -0.00159284 2.32911e-21)
(0.0649735 -0.0151171 7.49895e-22)
(0.0793387 -0.029322 -2.1731e-20)
(0.095535 -0.0442147 1.28285e-20)
(0.113584 -0.0596996 1.12025e-20)
(0.13354 -0.0756284 -1.06961e-20)
(0.155434 -0.091848 7.40906e-22)
(0.179243 -0.108186 1.10168e-20)
(0.204909 -0.124441 4.93818e-22)
(0.232459 -0.140278 4.25506e-21)
(0.261744 -0.156094 -2.97257e-21)
(0.292474 -0.171614 -2.29003e-21)
(0.32416 -0.186846 2.01814e-21)
(0.357206 -0.202093 0)
(0.387493 -0.216606 3.23647e-22)
(0.432767 -0.232682 2.15905e-23)
(0.174836 0.0225193 5.13714e-20)
(0.192095 0.0145342 -2.42471e-20)
(0.208608 0.00307781 2.59201e-20)
(0.2275 -0.0103345 0)
(0.247479 -0.0249545 -1.56327e-21)
(0.268309 -0.0404501 -2.44328e-20)
(0.2901 -0.0568359 -7.44337e-22)
(0.312944 -0.0741053 9.17371e-22)
(0.336911 -0.0920897 2.28802e-20)
(0.361994 -0.110574 1.3068e-21)
(0.388158 -0.129343 0)
(0.415303 -0.14814 -1.12751e-21)
(0.443353 -0.166725 0)
(0.472142 -0.184813 -9.06283e-22)
(0.50149 -0.202325 0)
(0.531206 -0.219033 0)
(0.560375 -0.234845 5.11809e-22)
(0.590663 -0.249885 -6.11057e-22)
(0.614992 -0.263018 5.41341e-22)
(0.653055 -0.278439 -1.47969e-22)
(0.369413 -0.00746731 0)
(0.396092 -0.0155421 -1.64012e-21)
(0.41856 -0.027861 -5.19745e-20)
(0.443289 -0.0422956 5.0357e-20)
(0.469948 -0.0577061 -1.59259e-21)
(0.497201 -0.0741505 0)
(0.524734 -0.0917679 -2.39816e-20)
(0.552661 -0.110402 4.55957e-20)
(0.581031 -0.129806 -2.45039e-20)
(0.609709 -0.149696 -1.34211e-21)
(0.638594 -0.169803 -1.25786e-21)
(0.667426 -0.189767 -1.16202e-21)
(0.696138 -0.209321 0)
(0.72434 -0.228046 6.04287e-21)
(0.751971 -0.245836 -1.37284e-20)
(0.778692 -0.262226 5.93682e-21)
(0.803704 -0.277268 -5.34707e-22)
(0.828797 -0.290677 -3.86697e-22)
(0.847272 -0.30162 1.544e-22)
(0.875527 -0.313358 -1.51015e-22)
(0.614041 -0.0419909 5.17745e-20)
(0.644321 -0.0501895 0)
(0.669088 -0.0636231 -1.63181e-21)
(0.695932 -0.0785431 3.22689e-21)
(0.724969 -0.0942462 3.17761e-21)
(0.75457 -0.111186 1.5527e-21)
(0.784189 -0.129385 1.51153e-21)
(0.813742 -0.148545 -2.15581e-20)
(0.843149 -0.168388 2.57784e-20)
(0.872063 -0.188577 2.32956e-20)
(0.900368 -0.208821 -1.9356e-20)
(0.927529 -0.228642 2.28705e-21)
(0.953664 -0.247811 -7.86703e-21)
(0.977921 -0.265718 1.88166e-21)
(1.00086 -0.282418 8.46159e-21)
(1.02123 -0.297072 6.57225e-22)
(1.03987 -0.310214 -7.63585e-22)
(1.05608 -0.320731 9.62751e-22)
(1.06831 -0.329173 1.43761e-21)
(1.08298 -0.335921 7.25151e-23)
(0.907095 -0.0726727 0)
(0.932981 -0.0816439 -5.27667e-20)
(0.955025 -0.0958935 5.41727e-20)
(0.979417 -0.111048 -1.6145e-21)
(1.00595 -0.127045 -3.14314e-21)
(1.03304 -0.144344 -1.55126e-21)
(1.06006 -0.162727 -2.98326e-21)
(1.08657 -0.181801 0)
(1.11236 -0.201307 -1.38584e-21)
(1.13681 -0.220866 -1.30925e-21)
(1.15994 -0.240201 -1.19484e-21)
(1.18082 -0.258751 -2.22176e-21)
(1.2001 -0.276388 0)
(1.21612 -0.292336 0)
(1.23079 -0.306921 -7.73289e-22)
(1.241 -0.318903 -5.81514e-21)
(1.25093 -0.329495 4.02422e-21)
(1.25486 -0.336533 -3.53419e-22)
(1.2602 -0.342504 -7.20514e-22)
(1.25859 -0.344361 2.07672e-22)
(1.21402 -0.0929185 5.3161e-20)
(1.23165 -0.104058 0)
(1.2483 -0.118526 0)
(1.26708 -0.133771 -5.00774e-20)
(1.28732 -0.150176 2.42329e-21)
(1.30777 -0.167664 9.59221e-20)
(1.32779 -0.185812 -4.56084e-20)
(1.34659 -0.204271 0)
(1.36398 -0.222829 0)
(1.37917 -0.241082 0)
(1.39255 -0.2588 6.12101e-22)
(1.40283 -0.275406 1.59984e-21)
(1.41144 -0.290889 1.44657e-20)
(1.41587 -0.304409 -1.3955e-20)
(1.41973 -0.316507 5.30636e-21)
(1.41768 -0.325709 -4.66152e-21)
(1.41784 -0.333738 0)
(1.40872 -0.337647 1.78276e-22)
(1.40737 -0.341486 2.05468e-22)
(1.39009 -0.339437 0)
(1.4851 -0.102287 -8.30737e-22)
(1.50118 -0.115415 -5.15056e-20)
(1.51354 -0.129347 5.09698e-20)
(1.52447 -0.144202 0)
(1.53484 -0.160017 4.70567e-20)
(1.5445 -0.176419 -9.19966e-20)
(1.55314 -0.193194 4.496e-20)
(1.56 -0.210153 0)
(1.56522 -0.227112 1.95551e-20)
(1.568 -0.243659 -3.75893e-20)
(1.5692 -0.259572 1.86072e-20)
(1.56729 -0.274296 -5.10253e-22)
(1.56442 -0.287837 0)
(1.55739 -0.299405 -1.20972e-20)
(1.55115 -0.309555 1.64986e-20)
(1.53863 -0.316876 -4.86868e-21)
(1.53079 -0.323126 -2.97829e-21)
(1.5119 -0.325303 2.11355e-21)
(1.50581 -0.327831 9.86841e-22)
(1.47778 -0.323876 0)
(1.7259 -0.0928948 0)
(1.72261 -0.106919 0)
(1.71639 -0.119506 0)
(1.70986 -0.133015 0)
(1.70463 -0.14771 0)
(1.70035 -0.163017 0)
(1.69646 -0.178509 0)
(1.69179 -0.193903 0)
(1.68647 -0.20912 0)
(1.67943 -0.223885 0)
(1.67178 -0.23813 0)
(1.66166 -0.251381 0)
(1.65159 -0.263724 0)
(1.63784 -0.274443 0)
(1.62595 -0.28407 0)
(1.60805 -0.29136 0)
(1.59605 -0.297776 0)
(1.57283 -0.300849 0)
(1.56411 -0.303962 0)
(1.53219 -0.30195 0)
(1.79922 -0.0828963 0)
(1.80123 -0.0980638 0)
(1.79614 -0.112198 0)
(1.78807 -0.126795 0)
(1.78025 -0.142073 0)
(1.77299 -0.157598 0)
(1.76583 -0.173005 0)
(1.75761 -0.188029 0)
(1.7486 -0.202623 0)
(1.73785 -0.216558 0)
(1.72665 -0.229815 0)
(1.71318 -0.241976 0)
(1.70011 -0.253165 0)
(1.68364 -0.262732 0)
(1.66945 -0.271218 0)
(1.64952 -0.277471 0)
(1.63592 -0.28291 0)
(1.61136 -0.285187 0)
(1.6017 -0.287624 0)
(1.5693 -0.285052 0)
(1.84006 -0.0747372 0)
(1.84274 -0.0907616 0)
(1.8374 -0.105986 0)
(1.82839 -0.12091 0)
(1.81941 -0.135779 0)
(1.81096 -0.150501 0)
(1.8026 -0.164931 0)
(1.79311 -0.178871 0)
(1.78279 -0.192282 0)
(1.77072 -0.204963 0)
(1.7583 -0.216925 0)
(1.74373 -0.227818 0)
(1.72974 -0.237786 0)
(1.7125 -0.246268 0)
(1.69775 -0.25376 0)
(1.67743 -0.259262 0)
(1.66363 -0.264014 0)
(1.63905 -0.266 0)
(1.6295 -0.268057 0)
(1.59746 -0.265849 0)
(1.86205 -0.0675173 0)
(1.86496 -0.0837854 0)
(1.85993 -0.0992919 0)
(1.85096 -0.11398 0)
(1.84171 -0.128139 0)
(1.83286 -0.14192 0)
(1.82409 -0.155345 0)
(1.81421 -0.168269 0)
(1.80354 -0.180644 0)
(1.79117 -0.192279 0)
(1.77854 -0.203201 0)
(1.76385 -0.213111 0)
(1.74987 -0.222159 0)
(1.73277 -0.229849 0)
(1.71825 -0.236636 0)
(1.69833 -0.24163 0)
(1.68491 -0.245931 0)
(1.66103 -0.24778 0)
(1.65184 -0.249648 0)
(1.62088 -0.247848 0)
(1.87528 -0.0617812 0)
(1.87828 -0.0776204 0)
(1.87392 -0.0927634 0)
(1.86553 -0.10691 0)
(1.85654 -0.120309 0)
(1.84772 -0.1332 0)
(1.83895 -0.145689 0)
(1.82911 -0.15767 0)
(1.81855 -0.169095 0)
(1.80635 -0.179785 0)
(1.79395 -0.189773 0)
(1.77958 -0.198801 0)
(1.766 -0.207024 0)
(1.7494 -0.213999 0)
(1.73544 -0.220148 0)
(1.7162 -0.224675 0)
(1.7034 -0.228572 0)
(1.68039 -0.230283 0)
(1.6717 -0.231994 0)
(1.64195 -0.230483 0)
(1.88674 -0.0573329 0)
(1.88958 -0.0722559 0)
(1.88579 -0.0866439 0)
(1.87804 -0.100065 0)
(1.86944 -0.11267 0)
(1.86079 -0.12469 0)
(1.85213 -0.136264 0)
(1.84244 -0.14732 0)
(1.83212 -0.157826 0)
(1.82021 -0.167615 0)
(1.80818 -0.176728 0)
(1.79423 -0.184937 0)
(1.78113 -0.192398 0)
(1.76509 -0.198716 0)
(1.75172 -0.204284 0)
(1.73316 -0.208387 0)
(1.72098 -0.211924 0)
(1.69881 -0.213506 0)
(1.69059 -0.215075 0)
(1.66195 -0.213803 0)
(1.89953 -0.0535713 0)
(1.90191 -0.0673734 0)
(1.89841 -0.080826 0)
(1.89117 -0.093415 0)
(1.88291 -0.105192 0)
(1.8744 -0.116344 0)
(1.86583 -0.127021 0)
(1.85627 -0.137179 0)
(1.84614 -0.146803 0)
(1.8345 -0.155742 0)
(1.82278 -0.16404 0)
(1.80919 -0.171493 0)
(1.79651 -0.178256 0)
(1.78093 -0.183971 0)
(1.76807 -0.189012 0)
(1.75009 -0.192722 0)
(1.73843 -0.195931 0)
(1.71695 -0.197381 0)
(1.70913 -0.198818 0)
(1.6814 -0.197726 0)
(1.91417 -0.0501071 0)
(1.91584 -0.0627525 0)
(1.9124 -0.0751924 0)
(1.9055 -0.0868815 0)
(1.89751 -0.097798 0)
(1.8891 -0.108085 0)
(1.88056 -0.117888 0)
(1.87105 -0.127181 0)
(1.86104 -0.135964 0)
(1.84956 -0.144101 0)
(1.83807 -0.151638 0)
(1.82474 -0.158388 0)
(1.81237 -0.164505 0)
(1.79714 -0.169662 0)
(1.78466 -0.174213 0)
(1.76711 -0.177557 0)
(1.75586 -0.180458 0)
(1.73491 -0.181772 0)
(1.7274 -0.183081 0)
(1.70038 -0.182123 0)
(1.9301 -0.0467734 0)
(1.93096 -0.0582675 0)
(1.92742 -0.0696534 0)
(1.92075 -0.0803957 0)
(1.91294 -0.0904266 0)
(1.90459 -0.0998503 0)
(1.89603 -0.108799 0)
(1.88651 -0.117258 0)
(1.87654 -0.125236 0)
(1.86514 -0.132609 0)
(1.85379 -0.139428 0)
(1.84062 -0.145518 0)
(1.82847 -0.151031 0)
(1.81348 -0.155667 0)
(1.80127 -0.15976 0)
(1.78404 -0.16276 0)
(1.77309 -0.16537 0)
(1.75252 -0.166549 0)
(1.74524 -0.167733 0)
(1.71874 -0.16688 0)
(1.9466 -0.0434573 0)
(1.94663 -0.0538097 0)
(1.9429 -0.0641242 0)
(1.93635 -0.0738947 0)
(1.92867 -0.0830255 0)
(1.92032 -0.0915888 0)
(1.91171 -0.0997005 0)
(1.90213 -0.10735 0)
(1.89215 -0.114551 0)
(1.88079 -0.121195 0)
(1.86951 -0.127329 0)
(1.85643 -0.132794 0)
(1.84441 -0.137738 0)
(1.82957 -0.141884 0)
(1.81756 -0.145547 0)
(1.80053 -0.148222 0)
(1.78981 -0.150559 0)
(1.7695 -0.151605 0)
(1.7624 -0.152668 0)
(1.73628 -0.151902 0)
(1.96304 -0.0400561 0)
(1.96223 -0.0492889 0)
(1.95825 -0.058537 0)
(1.95176 -0.0673301 0)
(1.94415 -0.075557 0)
(1.93578 -0.0832651 0)
(1.9271 -0.0905541 0)
(1.91743 -0.0974145 0)
(1.90741 -0.103865 0)
(1.89603 -0.109805 0)
(1.88479 -0.115283 0)
(1.87175 -0.120155 0)
(1.85982 -0.124557 0)
(1.84506 -0.128241 0)
(1.83318 -0.131496 0)
(1.81628 -0.133866 0)
(1.80572 -0.135942 0)
(1.78559 -0.136862 0)
(1.77862 -0.137808 0)
(1.75278 -0.137118 0)
(1.97889 -0.0365055 0)
(1.97728 -0.044652 0)
(1.97301 -0.0528514 0)
(1.96652 -0.0606726 0)
(1.95894 -0.0679988 0)
(1.95054 -0.0748588 0)
(1.94176 -0.0813381 0)
(1.93201 -0.0874277 0)
(1.92193 -0.093147 0)
(1.91051 -0.0984069 0)
(1.89926 -0.103253 0)
(1.88623 -0.107555 0)
(1.87434 -0.111439 0)
(1.85963 -0.114683 0)
(1.84785 -0.117551 0)
(1.83103 -0.119631 0)
(1.82058 -0.121458 0)
(1.80057 -0.122258 0)
(1.7937 -0.123093 0)
(1.76804 -0.122473 0)
(1.99373 -0.0327794 0)
(1.99137 -0.0398754 0)
(1.9868 -0.0470469 0)
(1.98027 -0.0539067 0)
(1.9727 -0.0603387 0)
(1.96425 -0.0663593 0)
(1.95539 -0.0720409 0)
(1.94553 -0.0773753 0)
(1.93538 -0.0823814 0)
(1.92391 -0.08698 0)
(1.91265 -0.0912136 0)
(1.8996 -0.0949662 0)
(1.88774 -0.0983533 0)
(1.87304 -0.101175 0)
(1.86131 -0.103672 0)
(1.84454 -0.105475 0)
(1.83417 -0.107065 0)
(1.81424 -0.107752 0)
(1.80744 -0.108478 0)
(1.78191 -0.107927 0)
(2.00726 -0.0288706 0)
(2.00421 -0.0349493 0)
(1.99935 -0.0411142 0)
(1.99277 -0.0470249 0)
(1.98519 -0.0525719 0)
(1.97668 -0.0577626 0)
(1.96774 -0.0626583 0)
(1.95778 -0.0672512 0)
(1.94755 -0.0715591 0)
(1.93602 -0.0755128 0)
(1.92473 -0.0791506 0)
(1.91166 -0.0823708 0)
(1.8998 -0.0852762 0)
(1.8851 -0.0876926 0)
(1.87341 -0.089831 0)
(1.85665 -0.0913705 0)
(1.84634 -0.0927313 0)
(1.82645 -0.0933115 0)
(1.8197 -0.0939328 0)
(1.79426 -0.0934499 0)
(2.01923 -0.0247803 0)
(2.01558 -0.0298722 0)
(2.01045 -0.0350515 0)
(2.00379 -0.0400267 0)
(1.99619 -0.0446989 0)
(1.98763 -0.0490701 0)
(1.9786 -0.0531911 0)
(1.96855 -0.057055 0)
(1.95826 -0.0606777 0)
(1.94667 -0.0640002 0)
(1.93534 -0.0670557 0)
(1.92223 -0.0697577 0)
(1.91037 -0.0721947 0)
(1.89566 -0.0742182 0)
(1.88399 -0.0760097 0)
(1.86723 -0.0772954 0)
(1.85696 -0.0784344 0)
(1.83709 -0.078914 0)
(1.83039 -0.0794339 0)
(1.805 -0.0790204 0)
(2.02947 -0.020518 0)
(2.0253 -0.0246509 0)
(2.01992 -0.028864 0)
(2.0132 -0.0329169 0)
(2.00557 -0.0367246 0)
(1.99696 -0.0402865 0)
(1.98785 -0.0436432 0)
(1.97772 -0.0467894 0)
(1.96736 -0.0497381 0)
(1.95571 -0.052441 0)
(1.94436 -0.0549257 0)
(1.93121 -0.057121 0)
(1.91934 -0.0591004 0)
(1.9046 -0.060742 0)
(1.89294 -0.0621955 0)
(1.87618 -0.0632359 0)
(1.86594 -0.0641593 0)
(1.84608 -0.0645437 0)
(1.83941 -0.064965 0)
(1.81405 -0.0646227 0)
(2.03783 -0.0161105 0)
(2.03324 -0.0193076 0)
(2.02765 -0.0225703 0)
(2.02086 -0.025711 0)
(2.01321 -0.0286623 0)
(2.00455 -0.0314229 0)
(1.99538 -0.0340239 0)
(1.98517 -0.0364615 0)
(1.97475 -0.0387452 0)
(1.96305 -0.0408382 0)
(1.95167 -0.042761 0)
(1.93849 -0.0444594 0)
(1.92661 -0.0459895 0)
(1.91185 -0.0472581 0)
(1.9002 -0.0483806 0)
(1.88343 -0.0491832 0)
(1.8732 -0.0498955 0)
(1.85334 -0.0501898 0)
(1.84669 -0.0505145 0)
(1.82135 -0.0502456 0)
(2.04419 -0.0115989 0)
(2.03928 -0.013879 0)
(2.03353 -0.0162028 0)
(2.02669 -0.0184383 0)
(2.01901 -0.0205377 0)
(2.01031 -0.0225017 0)
(2.00108 -0.0243519 0)
(1.99082 -0.0260868 0)
(1.98036 -0.0277113 0)
(1.96862 -0.0292012 0)
(1.95721 -0.0305679 0)
(1.94401 -0.0317768 0)
(1.93211 -0.032863 0)
(1.91733 -0.0337662 0)
(1.90568 -0.0345613 0)
(1.8889 -0.0351335 0)
(1.87868 -0.0356362 0)
(1.85882 -0.0358468 0)
(1.85218 -0.0360739 0)
(1.82686 -0.0358821 0)
(2.04845 -0.00693978 0)
(2.04333 -0.0083318 0)
(2.03748 -0.00973842 0)
(2.0306 -0.0110846 0)
(2.02291 -0.0123442 0)
(2.01418 -0.0135216 0)
(2.00492 -0.0146289 0)
(1.99462 -0.0156687 0)
(1.98412 -0.0166401 0)
(1.97235 -0.0175336 0)
(1.96093 -0.0183492 0)
(1.9477 -0.0190754 0)
(1.9358 -0.019721 0)
(1.92101 -0.0202662 0)
(1.90935 -0.0207349 0)
(1.89257 -0.0210851 0)
(1.88236 -0.0213753 0)
(1.86249 -0.0215121 0)
(1.85586 -0.0216362 0)
(1.83054 -0.021529 0)
(2.05053 -0.00216166 0)
(2.04532 -0.00267069 0)
(2.03944 -0.00317121 0)
(2.03256 -0.00364205 0)
(2.02486 -0.00407704 0)
(2.01612 -0.00448043 0)
(2.00684 -0.00485693 0)
(1.99652 -0.00520952 0)
(1.98601 -0.0055368 0)
(1.97423 -0.00583828 0)
(1.96279 -0.00611107 0)
(1.94956 -0.00635588 0)
(1.93765 -0.00657006 0)
(1.92285 -0.00675493 0)
(1.91119 -0.0069082 0)
(1.89441 -0.00702939 0)
(1.88419 -0.00712111 0)
(1.86433 -0.00717278 0)
(1.8577 -0.00720817 0)
(1.83238 -0.00717722 0)
(1.83468 0.147656 -6.4885e-22)
(1.854 0.125058 0)
(1.86704 0.101543 3.61512e-22)
(1.87579 0.0772852 1.14638e-20)
(1.87764 0.0524927 -3.20645e-20)
(1.87735 0.0280469 0)
(1.87021 0.00282512 -3.90367e-20)
(1.85076 -0.0205145 0)
(1.8456 -0.0458572 -4.57343e-20)
(1.72645 -0.0748408 7.10365e-22)
(1.84312 0.132517 1.96174e-22)
(1.86047 0.112857 -2.17109e-22)
(1.87294 0.0920584 2.17547e-22)
(1.87958 0.0714503 -2.0236e-21)
(1.88435 0.0492659 1.10927e-20)
(1.87796 0.0283907 8.75467e-22)
(1.88536 0.00581526 0)
(1.85102 -0.0163123 3.42998e-20)
(1.88097 -0.0354164 0)
(1.79301 -0.065553 4.03396e-20)
(1.85624 0.117545 -2.03538e-22)
(1.86966 0.100191 0)
(1.88286 0.0814264 2.39948e-22)
(1.884 0.0631233 -2.1316e-21)
(1.89424 0.0435683 -1.19814e-20)
(1.87848 0.0242655 0)
(1.89668 0.00594951 -2.59346e-20)
(1.85599 -0.0166203 -3.50945e-20)
(1.88693 -0.0307074 0)
(1.83242 -0.0581453 -3.99299e-20)
(1.87187 0.10446 -5.76213e-24)
(1.88126 0.0886883 -7.48228e-22)
(1.89592 0.0722544 0)
(1.89184 0.0552675 -8.00445e-21)
(1.9057 0.0389217 -6.26429e-22)
(1.88528 0.0200371 1.35878e-21)
(1.90405 0.0056818 2.52637e-20)
(1.86899 -0.0163895 8.29693e-22)
(1.88751 -0.0284252 2.87307e-20)
(1.85423 -0.0516783 0)
(1.88852 0.0928293 0)
(1.89514 0.0783004 6.99684e-22)
(1.91014 0.0643672 1.50469e-21)
(1.90394 0.048309 -5.44749e-22)
(1.91728 0.034916 4.06793e-22)
(1.89839 0.0167943 6.25858e-22)
(1.91104 0.00482121 1.86124e-20)
(1.88509 -0.0151563 1.51981e-21)
(1.89262 -0.0269073 -4.08684e-21)
(1.86808 -0.0466797 -2.78213e-20)
(1.90529 0.0823776 4.58442e-22)
(1.91083 0.0689744 -2.32469e-23)
(1.92444 0.0571431 -5.28025e-22)
(1.91906 0.0421639 -9.48162e-23)
(1.92915 0.0307426 5.33423e-21)
(1.91453 0.0141549 0)
(1.9206 0.00313886 -2.05311e-20)
(1.90103 -0.0142096 6.18642e-22)
(1.90279 -0.026 -4.7008e-20)
(1.8804 -0.043212 5.18697e-20)
(1.92189 0.0728493 -4.60697e-22)
(1.92743 0.0606559 -5.3021e-22)
(1.93877 0.0503244 -6.639e-22)
(1.93532 0.036744 2.02107e-21)
(1.94199 0.0264242 -1.0425e-21)
(1.93112 0.0117573 5.72841e-21)
(1.93317 0.00113349 -5.2747e-22)
(1.91661 -0.0139101 1.12821e-21)
(1.91629 -0.0253566 2.11996e-20)
(1.89422 -0.0406197 -2.40846e-20)
(1.93827 0.0641173 0)
(1.94407 0.0532265 1.35817e-21)
(1.9533 0.0439505 -2.70162e-23)
(1.95148 0.0319227 -1.71009e-21)
(1.95588 0.0223258 -1.15943e-21)
(1.94724 0.00951175 -9.88294e-21)
(1.94768 -0.000636061 5.50099e-21)
(1.93247 -0.0138621 0)
(1.93167 -0.0245724 0)
(1.91004 -0.0383129 0)
(1.9543 0.0561416 0)
(1.96019 0.0465429 -1.70646e-21)
(1.96792 0.038122 -7.76605e-23)
(1.96702 0.0275791 -5.74853e-22)
(1.97032 0.0186807 -2.91568e-21)
(1.96286 0.00745086 4.80583e-21)
(1.96291 -0.00198269 -6.50325e-21)
(1.94872 -0.0137625 3.65435e-22)
(1.9478 -0.0235835 0)
(1.92719 -0.0360698 -7.84253e-21)
(1.96978 0.0488894 8.81478e-23)
(1.9755 0.0404854 1.02469e-21)
(1.98227 0.0328745 1.20246e-21)
(1.98183 0.0236439 7.38586e-23)
(1.98465 0.0155258 -3.28053e-23)
(1.97801 0.0056152 2.67244e-21)
(1.97802 -0.00296761 -4.24775e-21)
(1.96498 -0.0135379 2.97413e-22)
(1.96391 -0.0224543 0)
(1.94486 -0.0338129 1.44538e-20)
(1.98445 0.0423065 0)
(1.98989 0.0349735 1.38734e-21)
(1.996 0.0281769 3.79204e-22)
(1.99585 0.0200893 0)
(1.99841 0.0128087 0)
(1.99255 0.00403191 -2.28342e-21)
(1.9925 -0.00366546 3.55434e-21)
(1.98083 -0.0131529 3.03199e-22)
(1.97952 -0.0211692 -1.19816e-22)
(1.96239 -0.0314534 -6.79948e-21)
(1.99808 0.0363217 0)
(2.00324 0.0299519 -2.79118e-21)
(2.00882 0.0239693 -1.98232e-21)
(2.00895 0.0169015 1.60432e-22)
(2.01128 0.0104716 -6.9777e-23)
(2.00626 0.00272175 1.1254e-22)
(2.00608 -0.0040949 -2.96584e-22)
(1.99589 -0.0125553 -2.67177e-21)
(1.99429 -0.0196763 -3.93522e-22)
(1.97926 -0.0289142 1.47548e-22)
(2.01052 0.0308596 0)
(2.01544 0.0253733 1.55716e-21)
(2.02055 0.0201894 -1.11421e-22)
(2.02099 0.0140628 1.10499e-22)
(2.02306 0.00847113 0)
(2.01893 0.00169298 0)
(2.01857 -0.00425862 0)
(2.00988 -0.011717 3.08767e-21)
(2.00797 -0.0179571 -3.23273e-21)
(1.99503 -0.0261621 0)
(2.02163 0.025849 0)
(2.02638 0.0211903 1.09943e-21)
(2.03106 0.0167803 1.13207e-21)
(2.03183 0.0115466 1.01846e-21)
(2.03365 0.00677087 -1.49589e-22)
(2.03038 0.000934407 2.54598e-22)
(2.02982 -0.00417319 3.43371e-22)
(2.02256 -0.0106433 0)
(2.02035 -0.0160227 5.06941e-22)
(2.00939 -0.0231934 3.4229e-21)
(2.03134 0.0212261 -3.0818e-22)
(2.03597 0.0173542 -9.1402e-22)
(2.04026 0.0136908 -1.4712e-21)
(2.04135 0.00931868 -7.25658e-22)
(2.04293 0.00533424 0)
(2.04046 0.000420543 -2.36036e-22)
(2.03971 -0.00386546 -4.22464e-22)
(2.03375 -0.00935394 6.04231e-23)
(2.03126 -0.0138903 1.54643e-21)
(2.02209 -0.0200147 -4.67663e-21)
(2.03959 0.016943 3.09763e-22)
(2.04412 0.0138223 -7.91484e-22)
(2.04808 0.0108771 5.47644e-22)
(2.04946 0.00734217 -1.08066e-21)
(2.05083 0.00412432 0)
(2.04905 0.000119877 0)
(2.04813 -0.00336481 -3.25903e-23)
(2.0433 -0.00787181 5.3481e-22)
(2.04056 -0.0115793 9.40477e-22)
(2.03295 -0.0166393 1.37212e-21)
(2.04632 0.0128941 0)
(2.05077 0.0105223 1.24206e-21)
(2.05446 0.0082812 -3.61148e-22)
(2.05608 0.00556762 1.01764e-21)
(2.05728 0.00309571 2.29735e-22)
(2.05606 -8.85357e-06 -5.9448e-23)
(2.055 -0.00270943 4.88705e-23)
(2.0511 -0.00623203 -4.02007e-22)
(2.04815 -0.00912279 0)
(2.04182 -0.0130982 0)
(2.0515 0.00905485 0)
(2.05587 0.00742609 5.3675e-22)
(2.05935 0.00587517 -8.04437e-22)
(2.06114 0.00396874 0)
(2.0622 0.00222388 -4.10856e-22)
(2.06142 8.2386e-06 -7.70506e-23)
(2.06025 -0.00192568 -1.08179e-22)
(2.05705 -0.00446693 4.83652e-23)
(2.05394 -0.00655505 4.8756e-25)
(2.04858 -0.00943681 -4.59477e-23)
(2.05503 0.00543188 0)
(2.05934 0.00451766 -5.39327e-22)
(2.06265 0.00364939 -3.96326e-22)
(2.06455 0.00255137 4.44712e-22)
(2.06552 0.00153414 1.533e-22)
(2.06502 0.000210593 1.28591e-22)
(2.06377 -0.000959754 2.0386e-22)
(2.06104 -0.00251767 2.85636e-23)
(2.05782 -0.00381358 -3.47021e-23)
(2.05311 -0.00560139 0)
(2.05681 0.00170281 0)
(2.06108 0.00151999 2.47573e-22)
(2.0643 0.0013446 -2.1947e-22)
(2.06625 0.0010708 1.85817e-22)
(2.06717 0.000798276 0)
(2.06681 0.000393818 -1.29235e-22)
(2.06552 1.31858e-05 2.78437e-23)
(2.06302 -0.00052404 -3.99774e-23)
(2.05972 -0.000996446 0)
(2.05532 -0.00165118 0)
(1.27098 0.323923 0)
(1.23437 0.355116 -4.51462e-20)
(1.20676 0.395228 0)
(1.18493 0.445645 -1.48257e-19)
(1.16566 0.505891 5.91453e-20)
(1.14733 0.578218 3.04396e-21)
(1.12826 0.664429 3.95818e-20)
(1.09031 0.754693 -1.09203e-20)
(0.9566 0.781902 0)
(0.557708 0.498343 2.6239e-20)
(1.3439 0.325403 8.05168e-20)
(1.31098 0.364356 4.51444e-20)
(1.28949 0.4033 -3.96925e-20)
(1.27306 0.452092 5.01107e-20)
(1.2593 0.511641 -3.55e-20)
(1.24803 0.583177 1.06177e-20)
(1.23751 0.667781 -4.31537e-20)
(1.20635 0.753933 -7.67328e-20)
(1.06648 0.772747 -2.01875e-20)
(0.619173 0.48074 -3.6616e-20)
(1.41464 0.321229 -3.26979e-20)
(1.38851 0.362065 3.31743e-20)
(1.3721 0.400323 3.96906e-20)
(1.35963 0.448284 3.94636e-20)
(1.35071 0.507074 3.86272e-20)
(1.34623 0.577067 3.66985e-20)
(1.34352 0.658488 1.23656e-20)
(1.31719 0.737696 2.60404e-20)
(1.16769 0.745695 7.13725e-22)
(0.66999 0.449432 -7.61889e-22)
(1.48607 0.313783 6.55048e-20)
(1.46544 0.353983 -3.31725e-20)
(1.4526 0.39065 0)
(1.44326 0.436805 0)
(1.43871 0.493533 0)
(1.44038 0.560607 1.70738e-20)
(1.44412 0.63709 -6.20077e-21)
(1.41959 0.706703 0)
(1.25607 0.701798 -7.85856e-21)
(0.705485 0.405605 1.95395e-20)
(1.55472 0.30255 -8.64431e-21)
(1.53843 0.340699 3.83352e-20)
(1.52855 0.375328 0)
(1.52219 0.4189 0)
(1.52173 0.472277 5.68086e-21)
(1.52873 0.53504 2.78697e-21)
(1.53701 0.605204 9.98154e-21)
(1.51069 0.661876 -7.74898e-21)
(1.32607 0.642695 -3.21704e-20)