/*--------------------------------*- C++ -*----------------------------------*\
| =========                 |                                                 |
| \\      /  F ield         | OpenFOAM: The Open Source CFD Toolbox           |
|  \\    /   O peration     | Version:  4.1                                   |
|   \\  /    A nd           | Web:      www.OpenFOAM.org                      |
|    \\/     M anipulation  |                                                 |
\*---------------------------------------------------------------------------*/
FoamFile
{
    version     2.0;
    format      ascii;
    class       volScalarField;
    location    "3.6";
    object      p;
}
// * * * * * * * * * * * * * * * * * * * * * * * * * * * * * * * * * * * * * //

dimensions      [0 2 -2 0 0 0 0];

internalField   nonuniform List<scalar> 
2000
(
-0.0535869
-0.0435133
-0.03564
-0.0262112
-0.0138713
0.00126845
0.0183149
0.0361048
0.0538294
0.0688945
-0.0692872
-0.0573806
-0.0476361
-0.0354823
-0.0197061
-0.0010188
0.0191529
0.039359
0.0584494
0.0746907
-0.0850689
-0.0712057
-0.0590503
-0.0433416
-0.0233369
-0.000598342
0.0229055
0.0455832
0.0663784
0.0844714
-0.100312
-0.0843636
-0.0691332
-0.0489992
-0.0240979
0.00297737
0.0298065
0.0548146
0.0771447
0.0964212
-0.11415
-0.0959902
-0.0769253
-0.0515421
-0.0212964
0.0101616
0.0401565
0.0672992
0.0910188
0.111458
-0.125482
-0.104994
-0.0813088
-0.0500125
-0.0142694
0.0213673
0.0542099
0.0831908
0.108104
0.129531
-0.133018
-0.110101
-0.0811005
-0.0434984
-0.00242478
0.0369707
0.0722394
0.102738
0.128659
0.150945
-0.13536
-0.109938
-0.0751573
-0.0312112
0.0147206
0.0572779
0.0944668
0.126128
0.152858
0.175825
-0.131118
-0.103186
-0.0624354
-0.0125202
0.037532
0.082526
0.121068
0.153496
0.18078
0.204173
-0.119031
-0.0886803
-0.0420926
0.0130183
0.0662459
0.112875
0.152171
0.18492
0.212393
0.235812
0.0520915
0.0510579
0.0537242
0.058813
0.0658273
0.0743631
0.083821
0.0934467
0.102571
0.110536
0.049207
0.0484156
0.0510782
0.0560256
0.0628674
0.0712407
0.0805514
0.0901266
0.0993325
0.107488
0.0436374
0.0433569
0.0460236
0.0507495
0.0572933
0.0653605
0.0744485
0.0839466
0.0933033
0.101846
0.0357919
0.0362591
0.0389914
0.043486
0.0496831
0.0574118
0.0662762
0.0757335
0.0853118
0.0944537
0.0261337
0.0275548
0.0304557
0.0348001
0.0407221
0.0481994
0.0569527
0.0664995
0.0763913
0.0863258
0.0150827
0.0176453
0.0208625
0.02521
0.031045
0.0384923
0.0473784
0.0572539
0.0676057
0.0784766
0.00297122
0.00681139
0.0105223
0.0151032
0.0211515
0.0289224
0.0383068
0.0488383
0.0598732
0.0717657
-0.0100195
-0.00478361
-0.000388669
0.00472755
0.0114068
0.0199907
0.0303493
0.0419081
0.0539051
0.0667991
-0.0238083
-0.0170651
-0.0117818
-0.00574921
0.00211139
0.0121467
0.0240911
0.0371557
0.0504986
0.0639892
-0.0383579
-0.0300035
-0.0235838
-0.0161531
-0.00643513
0.0057932
0.0200251
0.0352733
0.0506763
0.0641843
0.116706
0.1219
0.125842
0.128227
0.128961
0.128069
0.125618
0.121704
0.116448
0.109986
0.102468
0.0940369
0.0848316
0.0749768
0.0645813
0.053743
0.0425187
0.0310358
0.0190751
0.00748667
0.11333
0.118791
0.123204
0.125968
0.127005
0.126383
0.12418
0.120487
0.115423
0.109127
0.101751
0.0934422
0.08434
0.0745724
0.0642503
0.0534745
0.0423029
0.0308692
0.0189497
0.00741549
0.107069
0.113011
0.118289
0.121755
0.123351
0.123236
0.121498
0.118219
0.113514
0.10753
0.100421
0.0923399
0.0834309
0.0738263
0.0636412
0.0529814
0.0419088
0.0305603
0.0187308
0.00723187
0.0988693
0.105383
0.111775
0.116151
0.118477
0.119028
0.117908
0.11518
0.110955
0.105387
0.0986358
0.0908614
0.0822128
0.0728277
0.0628273
0.0523231
0.0413834
0.0301468
0.0184393
0.00698319
0.089916
0.0969679
0.104522
0.109869
0.112984
0.11427
0.113843
0.111735
0.108053
0.102957
0.0966157
0.0891925
0.0808421
0.0717082
0.0619183
0.0515901
0.0407999
0.0296867
0.0181175
0.00670383
0.0814218
0.0889159
0.0974645
0.103677
0.107523
0.109514
0.109767
0.108274
0.105135
0.100517
0.094593
0.0875299
0.0794858
0.0706092
0.0610331
0.0508811
0.0402386
0.0292423
0.0178091
0.00642608
0.0744332
0.0823023
0.091513
0.0983288
0.102736
0.105307
0.106142
0.105189
0.102533
0.0983438
0.0927992
0.0860662
0.0783043
0.0696645
0.0602831
0.0502878
0.0397735
0.0288711
0.0175533
0.00617817
0.0696046
0.0778123
0.0872618
0.0943033
0.0990055
0.101949
0.103209
0.102704
0.10047
0.0966572
0.09144
0.0849865
0.0774584
0.0690094
0.0597796
0.049899
0.0394726
0.0286219
0.0173771
0.00597502
0.0667466
0.0751164
0.0844255
0.0914363
0.0962963
0.0994665
0.101003
0.100848
0.0990001
0.0955549
0.0906574
0.0844676
0.0771464
0.0688496
0.0597233
0.0499019
0.0395023
0.0286353
0.0173804
0.00586423
0.0671125
0.0755271
0.0844396
0.09135
0.0961429
0.0991538
0.100522
0.100292
0.0984848
0.0951519
0.0904002
0.0843619
0.0771779
0.0689906
0.0599408
0.0501589
0.0397695
0.0288702
0.0175748
0.00589335
0.0805697
0.0836036
0.0907511
0.0966734
0.100278
0.102114
0.102557
0.101616
0.0992446
0.0954748
0.0904029
0.0841453
0.0768241
0.0685633
0.0594913
0.049723
0.0393864
0.0285514
0.0173788
0.00577719
0.0942441
0.0938645
0.0987301
0.102974
0.10492
0.105175
0.104273
0.102259
0.0990542
0.0946655
0.0891667
0.0826504
0.0752119
0.0669477
0.0579625
0.0483477
0.0382207
0.027623
0.0167517
0.00544715
0.107074
0.10438
0.106872
0.109195
0.109536
0.108384
0.106286
0.103304
0.0993439
0.0943819
0.0884699
0.0816807
0.0740903
0.0657746
0.0568216
0.0473039
0.0373329
0.0269258
0.0163107
0.00524398
0.119427
0.114786
0.115038
0.11545
0.114271
0.111842
0.108646
0.10475
0.100059
0.0945319
0.0882011
0.0811214
0.0733515
0.06495
0.05599
0.0465273
0.0366672
0.0264034
0.015984
0.00509108
0.130972
0.124745
0.122981
0.121602
0.119003
0.115402
0.111198
0.106447
0.10106
0.094987
0.0882423
0.0808642
0.0728968
0.0643838
0.0553858
0.0459434
0.0361558
0.0259953
0.0157245
0.00496776
0.141546
0.134077
0.13054
0.127536
0.123641
0.118977
0.113855
0.108318
0.10228
0.0956877
0.088541
0.0808638
0.0726878
0.0640444
0.0549832
0.0455317
0.0357832
0.0256913
0.0155292
0.00487514
0.151128
0.142682
0.137621
0.133177
0.128121
0.122501
0.116552
0.110297
0.103657
0.0965753
0.089043
0.0810715
0.072682
0.0638952
0.0547518
0.0452676
0.0355303
0.0254777
0.0153899
0.00480802
0.159729
0.150514
0.144167
0.138472
0.13239
0.12592
0.119228
0.112323
0.10513
0.0975938
0.0896964
0.0814401
0.0728372
0.0638997
0.0546603
0.0451252
0.0353768
0.0253391
0.0152967
0.00476137
0.167397
0.157578
0.150156
0.143386
0.136407
0.129186
0.121833
0.114344
0.106649
0.0986936
0.0904546
0.0819267
0.0731149
0.064024
0.05468
0.0450806
0.0353037
0.0252616
0.0152411
0.00473135
0.174196
0.163899
0.155582
0.147896
0.140141
0.132261
0.124325
0.116315
0.108168
0.0998306
0.091276
0.0824927
0.0734804
0.0642374
0.0547845
0.0451121
0.0352938
0.0252324
0.0152154
0.00471458
0.180191
0.169511
0.160451
0.15199
0.143569
0.135117
0.126669
0.1182
0.109649
0.100967
0.0921237
0.083104
0.0739023
0.0645123
0.0549499
0.0451998
0.0353316
0.0252402
0.0152127
0.00470808
0.185437
0.174448
0.164774
0.155662
0.146673
0.137729
0.128837
0.119965
0.111059
0.102069
0.0929661
0.0837304
0.0743532
0.064824
0.0551551
0.045326
0.0354031
0.0252747
0.015227
0.00470919
0.189985
0.178747
0.168566
0.158912
0.149444
0.14008
0.130806
0.121586
0.112369
0.103109
0.0937756
0.0843461
0.0748091
0.0651512
0.0553814
0.0454751
0.035496
0.025327
0.0152526
0.00471561
0.193878
0.18244
0.171844
0.161741
0.151874
0.142156
0.132559
0.123042
0.113558
0.104064
0.0945293
0.0849288
0.0752495
0.0654751
0.0556125
0.0456336
0.0355995
0.0253891
0.015285
0.00472537
0.197153
0.185555
0.174623
0.164154
0.153959
0.143949
0.134082
0.124316
0.114607
0.104915
0.0952078
0.0854601
0.0756569
0.0657803
0.0558348
0.0457899
0.0357045
0.0254543
0.0153199
0.00473677
0.199843
0.188118
0.176918
0.166157
0.155698
0.145451
0.135364
0.125395
0.115502
0.105646
0.0957954
0.0859247
0.0760172
0.0660535
0.0560368
0.0459343
0.0358033
0.025517
0.0153541
0.0047484
0.201971
0.190148
0.178742
0.167754
0.157089
0.146658
0.136399
0.12627
0.11623
0.106244
0.0962797
0.0863103
0.0763186
0.0662843
0.0562091
0.046059
0.0358896
0.0255726
0.0153846
0.0047591
0.203557
0.191661
0.180102
0.168948
0.158133
0.147565
0.137179
0.126932
0.116784
0.106701
0.096651
0.0866075
0.0765524
0.0664644
0.0563446
0.0461579
0.0359586
0.0256175
0.0154095
0.00476811
0.204623
0.192672
0.181008
0.169743
0.158828
0.148171
0.137702
0.127376
0.117156
0.107009
0.0969024
0.0868094
0.0767118
0.0665878
0.0564378
0.0462263
0.0360065
0.0256493
0.0154268
0.00477667
0.205193
0.1932
0.181473
0.170146
0.159179
0.148476
0.137965
0.127599
0.117344
0.107164
0.0970291
0.0869115
0.0767924
0.0666505
0.056485
0.0462617
0.0360299
0.0256678
0.0154311
0.00479192
0.255136
0.224225
0.19634
0.171669
0.150275
0.132089
0.11698
0.104758
0.0952977
0.0856425
0.271491
0.241829
0.215006
0.191053
0.170063
0.151864
0.136607
0.123366
0.11307
0.101262
0.285786
0.257437
0.231668
0.208387
0.18773
0.16934
0.153633
0.139224
0.127986
0.115679
0.29822
0.270963
0.246019
0.223246
0.20284
0.18432
0.168332
0.153425
0.14169
0.129371
0.309019
0.282669
0.258413
0.236092
0.215952
0.197489
0.181434
0.166432
0.154222
0.14183
0.31843
0.292871
0.269227
0.247347
0.227491
0.209184
0.193089
0.178043
0.165351
0.152892
0.326655
0.301797
0.278702
0.257238
0.237645
0.219509
0.203363
0.188297
0.175249
0.162742
0.333852
0.309615
0.287007
0.265925
0.246569
0.228606
0.212435
0.197384
0.184095
0.171511
0.340146
0.31646
0.294288
0.273554
0.254418
0.236627
0.220464
0.205436
0.191968
0.179289
0.345641
0.322446
0.300665
0.280248
0.261319
0.24369
0.227553
0.212543
0.198941
0.186167
0.350425
0.327666
0.306236
0.286107
0.267371
0.24989
0.23379
0.218794
0.205091
0.192226
0.354566
0.332198
0.311083
0.291213
0.272656
0.255309
0.239251
0.224268
0.210482
0.19753
0.358125
0.336104
0.315273
0.295636
0.277242
0.260016
0.244001
0.229026
0.21517
0.202132
0.361149
0.339436
0.31886
0.299431
0.281187
0.264067
0.248093
0.233122
0.219201
0.206078
0.363682
0.342242
0.321889
0.302645
0.284536
0.267509
0.251571
0.2366
0.222617
0.209407
0.365751
0.344553
0.324397
0.305316
0.287326
0.270381
0.254472
0.239494
0.22545
0.21215
0.367378
0.346389
0.32641
0.307472
0.289587
0.27271
0.256825
0.241834
0.227728
0.214334
0.368577
0.347773
0.32795
0.309138
0.291342
0.274521
0.25865
0.243639
0.229469
0.215977
0.369373
0.348731
0.329047
0.310345
0.292626
0.27585
0.259987
0.244949
0.230709
0.21711
0.369734
0.349228
0.329659
0.311052
0.293401
0.276665
0.26081
0.245751
0.231452
0.217757
0.670291
0.667608
0.659059
0.646376
0.630041
0.609033
0.581295
0.545063
0.503004
0.480586
0.629231
0.622223
0.608211
0.591178
0.570784
0.545002
0.511515
0.468817
0.419936
0.393153
0.585647
0.574392
0.55638
0.535697
0.511281
0.480687
0.441638
0.393035
0.338039
0.307654
0.538181
0.524012
0.503504
0.479982
0.451966
0.416939
0.372841
0.319199
0.259121
0.226215
0.48983
0.473277
0.450789
0.424819
0.39363
0.354722
0.306227
0.248406
0.185111
0.150807
0.442279
0.423575
0.399369
0.371245
0.337298
0.295118
0.243041
0.181361
0.118604
0.0827963
0.396199
0.375628
0.350021
0.320133
0.283919
0.239144
0.184379
0.1212
0.0595332
0.0232105
0.352167
0.330024
0.303372
0.272202
0.234277
0.187719
0.131622
0.0683689
0.00869392
-0.0270772
0.310621
0.287247
0.260089
0.227949
0.18893
0.141519
0.085245
0.0232933
-0.0330993
-0.0675343
0.27096
0.24783
0.220485
0.187837
0.148377
0.100942
0.0456205
-0.0135829
-0.0655069
-0.0980732
0.949897
0.95588
0.963613
0.973163
0.984501
0.997456
1.0115
1.02522
1.03777
1.0558
0.945025
0.950368
0.957627
0.966661
0.977348
0.989497
1.00256
1.0151
1.02626
1.04333
0.935252
0.939351
0.94568
0.953697
0.963097
0.973652
0.984763
0.994939
1.00348
1.01847
0.920535
0.922861
0.927849
0.934375
0.941891
0.950111
0.958357
0.965072
0.969811
0.981753
0.900836
0.900955
0.904256
0.908866
0.913947
0.919156
0.923707
0.925964
0.925809
0.933866
0.876131
0.873695
0.875046
0.877381
0.879558
0.881169
0.881305
0.878242
0.87225
0.875742
0.846521
0.841309
0.840544
0.840312
0.839176
0.836688
0.831803
0.822715
0.810123
0.808554
0.8117
0.803694
0.800908
0.798003
0.79329
0.78635
0.776004
0.760376
0.740634
0.733718
0.772218
0.761593
0.756986
0.751165
0.742572
0.730929
0.714851
0.692384
0.665183
0.652865
0.724975
0.715252
0.709637
0.700657
0.688001
0.671532
0.649561
0.620126
0.585386
0.567832
0.997073
0.99133
0.985855
0.980543
0.975336
0.970267
0.965393
0.96076
0.956411
0.952392
0.948758
0.945598
0.942974
0.940943
0.939575
0.938946
0.939136
0.940224
0.942307
0.945459
0.997022
0.99119
0.985612
0.980185
0.97486
0.969672
0.964673
0.959909
0.955419
0.951244
0.947451
0.944115
0.941292
0.939037
0.937414
0.936495
0.936354
0.937065
0.938707
0.94131
0.996934
0.990909
0.985113
0.979457
0.973901
0.968475
0.963226
0.958194
0.953417
0.948933
0.944829
0.941147
0.937929
0.935225
0.933093
0.931593
0.930785
0.930726
0.931477
0.932969
0.996798
0.990478
0.984354
0.978361
0.972462
0.966685
0.961072
0.955657
0.950469
0.945507
0.940918
0.936711
0.932902
0.929528
0.926632
0.924254
0.922432
0.921181
0.920555
0.920336
0.996611
0.989894
0.983335
0.976893
0.970538
0.964286
0.958166
0.952202
0.946419
0.940947
0.935753
0.930838
0.926233
0.921965
0.918054
0.914504
0.91132
0.908457
0.905944
0.903339
0.996373
0.989156
0.982055
0.975054
0.968128
0.961289
0.954563
0.947977
0.941492
0.935305
0.929328
0.923535
0.917946
0.912567
0.907388
0.902371
0.89748
0.892575
0.88768
0.881979
0.996082
0.988262
0.980524
0.972875
0.965293
0.957779
0.950325
0.942817
0.935664
0.928654
0.92172
0.914868
0.908103
0.901395
0.894696
0.887912
0.880965
0.873577
0.865808
0.856267
0.995733
0.987193
0.978687
0.970248
0.961853
0.953441
0.945052
0.936989
0.928963
0.920916
0.912865
0.904798
0.896676
0.888424
0.879947
0.871074
0.861674
0.851271
0.840037
0.825798
0.995376
0.986109
0.976834
0.967492
0.95815
0.94894
0.939874
0.930792
0.921653
0.912449
0.903159
0.893732
0.88409
0.874115
0.86367
0.852495
0.84043
0.826696
0.811687
0.791778
0.994823
0.984454
0.97409
0.963847
0.953672
0.943493
0.933286
0.923029
0.912682
0.902195
0.891504
0.880519
0.869115
0.857108
0.844282
0.830235
0.81473
0.796573
0.776673
0.74936
0.994533
0.983588
0.972629
0.961652
0.950631
0.939538
0.928354
0.917041
0.905538
0.893772
0.881653
0.869058
0.855829
0.841738
0.82652
0.809713
0.790917
0.768852
0.742994
0.708225
0.994273
0.982808
0.971301
0.95974
0.948112
0.936389
0.924535
0.912496
0.900207
0.887586
0.874536
0.860925
0.846591
0.831307
0.814814
0.796686
0.776564
0.75356
0.727516
0.697091
0.994027
0.982059
0.970019
0.957905
0.945706
0.933387
0.920899
0.908186
0.895179
0.881797
0.867938
0.853473
0.838249
0.822057
0.80467
0.785747
0.765014
0.74195
0.716374
0.68763
0.993784
0.981317
0.968751
0.95609
0.943325
0.930416
0.917309
0.903946
0.890256
0.876157
0.86155
0.846313
0.830303
0.813338
0.795224
0.775699
0.754545
0.731418
0.706104
0.678157
0.993545
0.98059
0.96751
0.954317
0.941005
0.927533
0.913843
0.899873
0.885555
0.870807
0.855536
0.839628
0.822955
0.805361
0.786684
0.76672
0.745292
0.722157
0.697158
0.669982
0.993313
0.979888
0.966314
0.952611
0.938782
0.924781
0.910548
0.896022
0.881134
0.865809
0.849958
0.83348
0.816261
0.798171
0.779073
0.758809
0.737243
0.714201
0.689584
0.663138
0.993091
0.979216
0.965174
0.950991
0.936675
0.922181
0.907448
0.892414
0.877015
0.86118
0.844827
0.827868
0.810202
0.791721
0.772314
0.751857
0.730248
0.707362
0.683131
0.657341
0.992881
0.978582
0.964099
0.949466
0.934698
0.91975
0.904559
0.889067
0.873212
0.856929
0.840145
0.822781
0.804752
0.785966
0.766335
0.745763
0.724172
0.701473
0.677616
0.652426
0.992684
0.977988
0.963096
0.948048
0.932863
0.917499
0.901894
0.885991
0.869733
0.85306
0.835907
0.818205
0.799882
0.780862
0.761072
0.740441
0.718909
0.696413
0.672916
0.64828
0.992501
0.977438
0.962171
0.946742
0.931177
0.915437
0.899461
0.883193
0.86658
0.84957
0.832104
0.814122
0.795562
0.776363
0.756467
0.735817
0.71437
0.692083
0.668929
0.644801
0.992334
0.976936
0.961327
0.945554
0.929647
0.91357
0.897263
0.880673
0.863752
0.846453
0.828722
0.810509
0.791761
0.772427
0.752462
0.731822
0.710476
0.688396
0.665563
0.641898
0.992182
0.976482
0.960567
0.944486
0.928275
0.911899
0.895301
0.87843
0.861244
0.843697
0.825745
0.807343
0.788446
0.769012
0.749006
0.728396
0.707157
0.685276
0.662738
0.639489
0.992047
0.976079
0.959892
0.943539
0.927061
0.910423
0.893573
0.87646
0.859046
0.841291
0.823156
0.804599
0.785585
0.76608
0.746054
0.725484
0.704354
0.682658
0.660387
0.637506
0.991929
0.975725
0.959303
0.942715
0.926005
0.909142
0.892075
0.874757
0.857151
0.839223
0.820936
0.802256
0.783151
0.763595
0.743563
0.723039
0.702013
0.680485
0.658451
0.635891
0.991828
0.975423
0.9588
0.942012
0.925105
0.908053
0.890803
0.873314
0.855549
0.837478
0.819069
0.800291
0.781117
0.761525
0.741496
0.72102
0.700089
0.67871
0.65688
0.634595
0.991743
0.975172
0.958382
0.941429
0.924361
0.907152
0.889753
0.872124
0.854231
0.836045
0.817539
0.798685
0.77946
0.759844
0.739823
0.719391
0.698544
0.677291
0.655634
0.633578
0.991676
0.974971
0.95805
0.940966
0.923769
0.906436
0.88892
0.87118
0.853187
0.834914
0.816333
0.797421
0.778158
0.758527
0.738517
0.718124
0.697346
0.676198
0.654679
0.632807
0.991626
0.974822
0.957803
0.940621
0.923327
0.905903
0.888299
0.870478
0.852412
0.834073
0.815439
0.796486
0.777197
0.757557
0.737557
0.717195
0.696472
0.675403
0.653991
0.632256
0.991593
0.974726
0.957643
0.940394
0.923035
0.905548
0.887887
0.870013
0.851898
0.833517
0.814848
0.795869
0.776563
0.756918
0.736925
0.716585
0.6959
0.674887
0.65355
0.631911
0.991569
0.974677
0.957567
0.940284
0.92289
0.905372
0.887682
0.869782
0.851642
0.833241
0.814554
0.795562
0.776248
0.756601
0.736612
0.716284
0.695618
0.674634
0.653339
0.631765
0.66839
0.626703
0.585223
0.541039
0.495727
0.451136
0.407782
0.365953
0.325981
0.289012
0.663575
0.620447
0.579029
0.537903
0.495889
0.454395
0.414091
0.375192
0.338195
0.303764
0.655712
0.61428
0.574239
0.536013
0.497108
0.458283
0.420487
0.38403
0.349257
0.316539
0.647935
0.609048
0.570743
0.534723
0.498391
0.46188
0.426199
0.39175
0.358781
0.327616
0.641105
0.604565
0.568113
0.533907
0.499698
0.465197
0.431321
0.398558
0.367125
0.337272
0.63523
0.600737
0.56612
0.533477
0.501008
0.468229
0.435907
0.404572
0.374439
0.345706
0.630225
0.597515
0.564604
0.533327
0.502289
0.470971
0.439989
0.409873
0.380849
0.353082
0.626015
0.59485
0.563454
0.533367
0.503515
0.47343
0.443604
0.414537
0.386464
0.359538
0.622505
0.592669
0.562585
0.533523
0.504663
0.475619
0.446788
0.418627
0.391376
0.365182
0.619599
0.590897
0.561928
0.533741
0.505715
0.477549
0.449572
0.422196
0.395658
0.370105
0.617205
0.589466
0.561431
0.533981
0.506656
0.47923
0.451986
0.42529
0.399373
0.374383
0.615244
0.588311
0.561051
0.534213
0.507474
0.480673
0.454056
0.427948
0.402573
0.378078
0.613648
0.587379
0.560749
0.534414
0.508161
0.481885
0.455803
0.430203
0.405301
0.38124
0.612356
0.586623
0.560497
0.534566
0.508711
0.482874
0.457245
0.432083
0.407591
0.383911
0.611322
0.586004
0.56027
0.534655
0.509121
0.483645
0.458396
0.433608
0.409472
0.386126
0.610505
0.585491
0.560045
0.534669
0.509385
0.484201
0.45927
0.434797
0.410959
0.387893
0.609875
0.58506
0.559811
0.5346
0.509502
0.484549
0.459875
0.435668
0.412095
0.389292
0.609404
0.58469
0.559554
0.534444
0.509475
0.484694
0.460224
0.436234
0.412881
0.390288
0.609072
0.584354
0.559237
0.534162
0.50927
0.484612
0.460301
0.436489
0.413324
0.390924
0.608916
0.584114
0.55891
0.533772
0.508874
0.484273
0.460063
0.436381
0.413361
0.391111
)
;

boundaryField
{
    bottom
    {
        type            symmetryPlane;
    }
    right
    {
        type            fixedValue;
        value           uniform 0;
    }
    top
    {
        type            symmetryPlane;
    }
    left
    {
        type            fixedValue;
        value           uniform 1;
    }
    cylinder
    {
        type            zeroGradient;
    }
    defaultFaces
    {
        type            empty;
    }
}


// ************************************************************************* //
