/*--------------------------------*- C++ -*----------------------------------*\
| =========                 |                                                 |
| \\      /  F ield         | OpenFOAM: The Open Source CFD Toolbox           |
|  \\    /   O peration     | Version:  4.1                                   |
|   \\  /    A nd           | Web:      www.OpenFOAM.org                      |
|    \\/     M anipulation  |                                                 |
\*---------------------------------------------------------------------------*/
FoamFile
{
    version     2.0;
    format      ascii;
    class       surfaceScalarField;
    location    "3.6";
    object      phi;
}
// * * * * * * * * * * * * * * * * * * * * * * * * * * * * * * * * * * * * * //

dimensions      [0 3 -1 0 0 0 0];

internalField   nonuniform List<scalar> 
3890
(
0.000798463
-0.00117051
0.000372045
0.00316973
-0.00727666
0.0049054
0.00693974
-0.015124
0.011354
0.0117068
-0.0231808
0.0184137
0.0169544
-0.0303646
0.025117
0.0222086
-0.0360984
0.0308442
0.0271339
-0.0402458
0.0353206
0.0315457
-0.0429517
0.0385398
0.0353712
-0.0444716
0.0406462
-0.0451777
0.0418882
0.0386606
0.000980254
-0.00215076
0.00376196
-0.0100584
0.00799162
-0.0193536
0.0130692
-0.0282584
0.0183581
-0.0356535
0.0233738
-0.041114
0.0278493
-0.0447213
0.0317081
-0.0468105
0.0350184
-0.047782
-0.0480652
0.037906
0.00117631
-0.00332707
0.00434796
-0.01323
0.0089249
-0.0239306
0.0141071
-0.0334406
0.0191926
-0.040739
0.0237499
-0.0456713
0.0276168
-0.0485883
0.0308158
-0.0500095
0.0334637
-0.0504298
-0.0502686
0.035667
0.00137896
-0.00470603
0.00488755
-0.0167386
0.00965452
-0.0286975
0.0147172
-0.0385033
0.0193835
-0.0454052
0.023332
-0.0496198
0.0265252
-0.0517815
0.0290794
-0.0525637
0.0311629
-0.0525133
-0.0520305
0.0329248
0.00157646
-0.00628249
0.00533354
-0.0204957
0.010105
-0.0334689
0.0148376
-0.0432359
0.0189242
-0.0494918
0.0221852
-0.0528808
0.0246995
-0.0542959
0.0266495
-0.0545136
0.0282252
-0.0540891
-0.0533718
0.0295666
0.00175407
-0.00803657
0.00563993
-0.0243816
0.0102255
-0.0380545
0.0144572
-0.0474677
0.017869
-0.0529036
0.0204273
-0.0554391
0.0223042
-0.0561728
0.0237187
-0.0559281
0.0248577
-0.0552281
-0.0543576
0.0258435
0.00189551
-0.00993208
0.00576998
-0.028256
0.00999771
-0.0422822
0.0136102
-0.0510802
0.0163096
-0.055603
0.0181911
-0.0573207
0.0194874
-0.0574691
0.0204257
-0.0568663
0.0211738
-0.0559762
-0.0550147
0.0218309
0.00198498
-0.0119171
0.00570108
-0.0319721
0.0094345
-0.0460156
0.0123615
-0.0540072
0.014354
-0.0575954
0.015607
-0.0585737
0.0163822
-0.0582443
0.0168946
-0.0573788
0.0172844
-0.0563659
-0.0553575
0.0176272
0.00201004
-0.0139271
0.00543265
-0.0353947
0.00857369
-0.0491567
0.0107913
-0.0562247
0.0121086
-0.0589128
0.0127874
-0.0592525
0.0130931
-0.0585501
0.0132153
-0.057501
0.0132639
-0.0564146
-0.055387
0.0132935
0.00196346
-0.0158906
0.00497952
-0.0384108
0.00746792
-0.0516451
0.00898245
-0.0577393
0.00966882
-0.0595991
0.00982464
-0.0594083
0.00970094
-0.0584264
0.00945756
-0.0572576
0.00917765
-0.0561347
0.00889545
-0.0551048
-0.000437267
0.000437267
-0.00100806
0.000570798
-0.00135769
0.000349624
-0.0012985
-5.919e-05
-0.000729506
-0.000568993
0.000401681
-0.00113119
0.00210834
-0.00170666
0.00437623
-0.00226789
0.00715779
-0.00278156
-0.00318981
0.0103476
-0.000391249
0.000828515
-0.000870581
0.00105013
-0.00110125
0.000580295
-0.000901836
-0.000258606
-0.000173226
-0.0012976
0.0011256
-0.00243001
0.00300701
-0.00358807
0.0054493
-0.00471018
0.00840253
-0.00573478
-0.00655394
0.0117667
-0.000304635
0.00113315
-0.00061287
0.00135837
-0.000615301
0.000582726
-0.000144335
-0.000729573
0.000887239
-0.00232918
0.00251642
-0.0040592
0.00473587
-0.00580752
0.0075112
-0.00748551
0.0107854
-0.00900894
-0.0102362
0.0144676
-0.000189699
0.00132285
-0.000261877
0.00143055
5.5845e-05
0.000265004
0.000911584
-0.00158531
0.00237994
-0.00379753
0.00447519
-0.00615444
0.00716877
-0.00850111
0.0104023
-0.010719
0.0141015
-0.0127081
-0.0143186
0.0181838
-5.94815e-05
0.00138233
0.00015195
0.00121911
0.00086073
-0.000443776
0.00219576
-0.00292034
0.00420408
-0.00580586
0.00687131
-0.00882167
0.0101344
-0.0117642
0.0138998
-0.0144845
0.0180649
-0.0168731
-0.0188017
0.022548
7.69321e-05
0.0013054
0.000600236
0.000695811
0.00175631
-0.00159985
0.00364004
-0.00480407
0.00626279
-0.00842861
0.00956542
-0.0121243
0.0134366
-0.0156353
0.0177376
-0.0187855
0.022331
-0.0214665
-0.0235961
0.0271255
0.000211848
0.00109355
0.00106792
-0.000160265
0.00271167
-0.0032436
0.0051936
-0.00728601
0.00847032
-0.0117053
0.0124185
-0.0160725
0.0168648
-0.0200816
0.021621
-0.0235417
0.0265185
-0.0263641
-0.0285285
0.0314509
0.000346519
0.000747029
0.00155242
-0.00136617
0.00371444
-0.00540562
0.00682048
-0.0103921
0.0107462
-0.0156311
0.0152834
-0.0206097
0.0201894
-0.0249876
0.0252348
-0.0285871
0.0302352
-0.0313645
-0.0333642
0.035071
0.000485113
0.000261916
0.00205988
-0.00294093
0.00476142
-0.00810716
0.00848642
-0.014117
0.012999
-0.0201437
0.0179906
-0.0256013
0.0231562
-0.0301532
0.0282515
-0.0336824
0.0331093
-0.0362223
-0.0378649
0.0376099
0.00063396
0.00259842
0.00584523
0.0101419
0.0151153
0.0203581
0.0255255
0.0303829
0.0348068
0.0388301
0.0130081
-0.00266051
0.0156759
-0.00266776
0.0183364
-0.00266049
0.0209644
-0.00262809
0.0235308
-0.00256633
0.0260087
-0.0024779
0.0283767
-0.00236807
0.0306183
-0.00224156
0.032721
-0.00210264
0.0346763
-0.00195538
0.0364799
-0.00180356
0.0381305
-0.00165057
0.0396298
-0.00149931
0.040982
-0.00135221
0.0421932
-0.00121124
0.0432711
-0.00107789
0.0442247
-0.000953547
0.0450622
-0.00083758
0.0457994
-0.000737122
-0.000622108
0.0143461
-0.00523994
0.0169258
-0.00524748
0.0194974
-0.00523212
0.0220369
-0.00516752
0.0245157
-0.00504513
0.0269084
-0.00487067
0.029195
-0.00465458
0.0313594
-0.00440599
0.0333899
-0.00413316
0.0352786
-0.00384405
0.0370211
-0.0035461
0.0386165
-0.00324593
0.0400664
-0.00294922
0.0413749
-0.00266073
0.042548
-0.00238434
0.043593
-0.00212288
0.0445187
-0.00187929
0.0453327
-0.00165155
0.0460515
-0.00145591
-0.00122699
0.0168867
-0.00765903
0.019294
-0.0076548
0.0216928
-0.00763085
0.0240608
-0.00753558
0.0263712
-0.00735549
0.028601
-0.00710047
0.030732
-0.0067856
0.0327498
-0.00642384
0.0346437
-0.00602699
0.0364063
-0.00560665
0.0380338
-0.00517365
0.0395255
-0.00473759
0.040883
-0.00430671
0.0421101
-0.00388789
0.0432125
-0.00348673
0.0441969
-0.00310727
0.0450716
-0.00275403
0.0458432
-0.00242311
0.0465279
-0.00214065
-0.00180597
0.0203673
-0.00984247
0.0225277
-0.00981522
0.024681
-0.00978411
0.0268074
-0.00966199
0.0288817
-0.00942976
0.0308847
-0.00910352
0.0328008
-0.00870164
0.034617
-0.00824013
0.0363238
-0.0077338
0.0379148
-0.00719763
0.0393867
-0.00664556
0.040739
-0.00608982
0.0419731
-0.00554085
0.0430926
-0.00500734
0.0441023
-0.00449647
0.0450082
-0.00401316
0.0458178
-0.00356367
0.0465362
-0.00314143
0.0471794
-0.00278386
-0.00235349
0.0244241
-0.0117185
0.0262767
-0.0116679
0.0281293
-0.0116367
0.0299629
-0.0114955
0.0317538
-0.0112207
0.033487
-0.0108368
0.0351494
-0.010364
0.0367295
-0.00982024
0.0382188
-0.00922305
0.0396117
-0.00859059
0.0409057
-0.00793956
0.0421003
-0.00728436
0.0431967
-0.00663722
0.0441976
-0.00600829
0.0451071
-0.00540602
0.0459299
-0.00483593
0.0466724
-0.0043062
0.0473377
-0.00380665
0.0479414
-0.00338758
-0.00287343
0.0286345
-0.0132276
0.0301389
-0.0131723
0.0316588
-0.0131567
0.033173
-0.0130097
0.0346592
-0.0127069
0.0361047
-0.0122823
0.0374989
-0.0117582
0.0388314
-0.0111527
0.0400949
-0.0104866
0.0412851
-0.00978076
0.0423998
-0.00905423
0.0434383
-0.00832292
0.0444014
-0.00760032
0.0452907
-0.00689754
0.0461088
-0.00622411
0.0468586
-0.00558578
0.0475454
-0.00499302
0.0481697
-0.00443091
0.0487466
-0.00396448
-0.003379
0.0325643
-0.014341
0.0337126
-0.0143205
0.0348986
-0.0143427
0.0360952
-0.0142063
0.0372814
-0.0138932
0.0384459
-0.0134468
0.0395809
-0.0128931
0.0406774
-0.0122492
0.0417297
-0.0115389
0.0427346
-0.0107856
0.04369
-0.0100096
0.0445946
-0.00922754
0.0454479
-0.00845356
0.0462496
-0.00769931
0.0470008
-0.00697524
0.047702
-0.00628703
0.048357
-0.005648
0.0489635
-0.00503741
0.0495359
-0.00453685
-0.00389191
0.0358101
-0.0150802
0.0366378
-0.0151482
0.0375206
-0.0152255
0.0384259
-0.0151116
0.0393395
-0.0148068
0.0402518
-0.0143591
0.0411593
-0.0138006
0.0420558
-0.0131457
0.0429363
-0.0124195
0.0437975
-0.0116468
0.0446359
-0.010848
0.0454487
-0.0100403
0.046233
-0.00923791
0.0469866
-0.00845287
0.047708
-0.00769664
0.0483957
-0.00697474
0.0490518
-0.00630412
0.0496716
-0.00565722
0.0502683
-0.00513356
-0.00443891
0.0380621
-0.0155324
0.0386555
-0.0157416
0.039282
-0.015852
0.0399371
-0.0157667
0.040625
-0.0154948
0.0413396
-0.0150736
0.0420758
-0.0145369
0.0428309
-0.0139008
0.0436005
-0.0131891
0.044379
-0.0124253
0.0451603
-0.0116293
0.045938
-0.0108181
0.0467065
-0.0100064
0.0474606
-0.00920698
0.0481968
-0.00843279
0.0489114
-0.00768934
0.0496055
-0.00699822
0.0502729
-0.00632468
0.0509265
-0.0057871
-0.00505199
0.0393927
-0.0160949
0.0398065
-0.0161554
0.0402034
-0.0162489
0.040648
-0.0162113
0.0411554
-0.0160022
0.0417215
-0.0156397
0.0423391
-0.0151544
0.0430078
-0.0145695
0.0437234
-0.0139046
0.0444767
-0.0131786
0.0452572
-0.0124098
0.0460543
-0.0116152
0.0468586
-0.0108107
0.0476617
-0.01001
0.0484573
-0.00922844
0.0492397
-0.00847173
0.0500084
-0.00776696
0.0507567
-0.00707291
0.0514976
-0.006528
-0.0057726
0.0625743
-0.0143149
-0.0643544
0.0610915
-0.0146726
0.0596549
-0.0148122
0.0582592
-0.0148157
0.0569363
-0.0146793
0.0557035
-0.0144069
0.0545678
-0.0140188
0.0535348
-0.0135365
0.0526081
-0.0129779
0.0517885
-0.012359
0.0510739
-0.0116952
0.05046
-0.0110013
0.0499406
-0.0102913
0.049508
-0.00957744
0.049154
-0.00887449
0.0488695
-0.0081872
0.0486462
-0.00754369
0.0484747
-0.00690136
0.0483488
-0.00640209
-0.00569567
0.0639211
-0.0127115
-0.0655244
0.0623887
-0.0131402
0.0609355
-0.013359
0.059541
-0.0134212
0.0582141
-0.0133524
0.0569695
-0.0131622
0.0558151
-0.0128643
0.0547548
-0.0124762
0.0537912
-0.0120143
0.0529252
-0.011493
0.052156
-0.0109261
0.0514808
-0.0103261
0.0508952
-0.00970568
0.0503936
-0.00907584
0.0499694
-0.00845031
0.0496152
-0.00783294
0.0493231
-0.00725165
0.0490861
-0.00666431
0.0488928
-0.0062088
-0.00554722
0.0645517
-0.0112042
-0.066059
0.0630782
-0.0116667
0.0616675
-0.0119483
0.0603164
-0.01207
0.0590272
-0.0120633
0.0578101
-0.0119451
0.0566734
-0.0117276
0.0556216
-0.0114245
0.0546574
-0.01105
0.0537817
-0.0106174
0.0529942
-0.0101385
0.0522928
-0.00962468
0.0516742
-0.00908717
0.0511342
-0.00853579
0.0506672
-0.00798334
0.0502672
-0.00743292
0.0499271
-0.00691149
0.0496408
-0.00637807
0.0493963
-0.00596434
-0.00535078
0.0646792
-0.00982451
-0.0660589
0.0633215
-0.0103091
0.0620032
-0.01063
0.0607316
-0.0107984
0.059512
-0.0108438
0.0583529
-0.010786
0.0572621
-0.0106367
0.0562447
-0.0104071
0.0553037
-0.0101091
0.0544408
-0.00975448
0.0536563
-0.00935398
0.0529492
-0.00891754
0.0523172
-0.00845525
0.0517573
-0.00797584
0.0512651
-0.0074911
0.0508355
-0.00700337
0.0504624
-0.00653836
0.0501409
-0.00605658
0.0498595
-0.00568297
-0.00511778
0.0644978
-0.00860121
-0.0657211
0.0632761
-0.00908732
0.0620732
-0.00942711
0.0609015
-0.00962667
0.0597697
-0.009712
0.0586859
-0.00970223
0.0576575
-0.00960835
0.0566902
-0.0094397
0.0557876
-0.00920648
0.054952
-0.00891891
0.0541846
-0.00858655
0.0534853
-0.00821825
0.052853
-0.007823
0.0522857
-0.00740848
0.05178
-0.00698544
0.0513322
-0.00655552
0.0509368
-0.00614297
0.0505902
-0.00571005
0.0502816
-0.00537435
-0.0048562
0.064156
-0.00753088
-0.0652263
0.0630691
-0.00800042
0.0619851
-0.00834318
0.0609186
-0.00856013
0.0598798
-0.00867315
0.058877
-0.00869948
0.0579176
-0.00864898
0.0570075
-0.00852958
0.0561509
-0.00834991
0.0553509
-0.00811882
0.0546091
-0.00784476
0.0539263
-0.00753554
0.0533025
-0.00719914
0.0527363
-0.00684231
0.0522256
-0.00647474
0.0517676
-0.00609746
0.0513577
-0.00573311
0.0509935
-0.00534588
0.0506648
-0.00504561
-0.00457298
0.0637515
-0.00659493
-0.0646874
0.0627879
-0.00703678
0.0618154
-0.00737075
0.0608492
-0.00759391
0.0599001
-0.00772403
0.0589766
-0.00777599
0.058086
-0.00775836
0.0572342
-0.00767784
0.056426
-0.0075417
0.0556648
-0.00735755
0.0549528
-0.00713278
0.0542915
-0.00687426
0.0536814
-0.00658905
0.0531221
-0.006283
0.0526122
-0.00596484
0.0521498
-0.00563504
0.0517313
-0.00531459
0.0513551
-0.00496973
0.0510119
-0.00470236
-0.0042735
0.0633412
-0.00577243
-0.0641637
0.0624848
-0.00618041
0.0616116
-0.00649748
0.060736
-0.00671836
0.059869
-0.00685706
0.0590191
-0.006926
0.0581932
-0.00693245
0.0573973
-0.00688201
0.0566364
-0.00678078
0.0559141
-0.00663526
0.0552332
-0.00645186
0.0545955
-0.00623657
0.054002
-0.0059956
0.0534531
-0.00573401
0.0529478
-0.00545959
0.0524852
-0.0051724
0.0520623
-0.00489169
0.0516785
-0.00458595
0.0513251
-0.00434897
-0.00396199
0.062953
-0.00504378
-0.0636817
0.0621876
-0.00541498
0.0614001
-0.00571002
0.0606042
-0.00592248
0.0598103
-0.00606312
0.0590264
-0.00614212
0.0582594
-0.00616547
0.0575152
-0.00613781
0.0567987
-0.00606424
0.0561137
-0.00595026
0.0554632
-0.00580139
0.0548495
-0.00562283
0.0542739
-0.00541999
0.0537371
-0.00519721
0.0532389
-0.00496144
0.0527789
-0.00471236
0.0523548
-0.00446756
0.0519667
-0.00419784
0.0516065
-0.00398886
-0.00364182
0.0625981
-0.00439222
-0.0632497
0.061909
-0.00472585
0.0611948
-0.00499586
0.0604679
-0.00519554
0.0597378
-0.00533309
0.0590124
-0.00541665
0.058298
-0.00545111
0.0576005
-0.00544025
0.0569245
-0.0053883
0.0562742
-0.0052999
0.0556525
-0.00517976
0.055062
-0.00503232
0.0545043
-0.0048623
0.0539805
-0.00467341
0.0534908
-0.00447175
0.0530353
-0.0042568
0.0526121
-0.00404441
0.0522222
-0.00380788
0.051858
-0.00362468
-0.0033157
0.0622796
-0.00380414
-0.0628677
0.0616542
-0.00410051
0.0610023
-0.00434387
0.0603345
-0.00452777
0.0596598
-0.00465841
0.0589854
-0.00474224
0.0583175
-0.00478316
0.0576614
-0.00478423
0.057022
-0.00474892
0.0564032
-0.0046811
0.0558082
-0.00458476
0.0552396
-0.00446369
0.0546993
-0.00432194
0.0541885
-0.00416266
0.0537079
-0.00399118
0.0532579
-0.00380682
0.0528373
-0.00362377
0.0524473
-0.00341785
0.052081
-0.00325844
-0.00298574
0.0619971
-0.00326849
-0.0625328
0.0614251
-0.00352842
0.0608256
-0.00374438
0.0602083
-0.00391046
0.0595812
-0.00403135
0.058951
-0.00411209
0.0583236
-0.00415575
0.0577042
-0.00416477
0.0570972
-0.00414199
0.0565067
-0.0040906
0.0559359
-0.00401394
0.0553874
-0.00391521
0.0548633
-0.00379785
0.0543652
-0.00366451
0.0538939
-0.00351982
0.05345
-0.00336301
0.0530329
-0.00320661
0.0526441
-0.00302904
0.0522772
-0.00289163
-0.00265356
0.0617495
-0.00277608
-0.0622419
0.0612217
-0.00300063
0.0606663
-0.00318896
0.0600917
-0.00333587
0.0595053
-0.00344489
0.0589131
-0.00351993
0.0583207
-0.00356337
0.0577331
-0.00357714
0.0571546
-0.00356352
0.0565891
-0.00352511
0.0560399
-0.00346469
0.0555096
-0.00338492
0.0550004
-0.00328869
0.0545141
-0.0031782
0.0540517
-0.00305741
0.0536142
-0.00292553
0.0532011
-0.00279346
0.0528143
-0.00264225
0.052448
-0.0025253
-0.00232037
0.0615353
-0.00231914
-0.0619923
0.0610441
-0.00250942
0.0605254
-0.00267021
0.0599866
-0.00279708
0.0594344
-0.00289267
0.0588744
-0.00296
0.0583119
-0.00300089
0.0577516
-0.00301683
0.0571977
-0.00300962
0.056654
-0.00298139
0.0561237
-0.00293437
0.0556095
-0.00287075
0.0551137
-0.00279293
0.0546382
-0.0027027
0.0541842
-0.00260338
0.0537529
-0.00249422
0.0533439
-0.00238451
0.0529597
-0.00225798
0.0525945
-0.00216015
-0.00198703
0.0613534
-0.00189096
-0.0617815
0.060892
-0.00204803
0.0604033
-0.00218155
0.0598941
-0.00228783
0.0593702
-0.00236886
0.0588372
-0.00242695
0.0582998
-0.00246346
0.0577625
-0.00247953
0.0572294
-0.00247656
0.0567042
-0.00245622
0.0561902
-0.0024203
0.0556899
-0.00237055
0.0552059
-0.0023089
0.05474
-0.00223679
0.0542936
-0.00215694
0.053868
-0.00206867
0.0534632
-0.00197967
0.0530816
-0.00187639
0.052718
-0.00179656
-0.0016541
0.0612025
-0.00148564
-0.0616079
0.060765
-0.0016105
0.0603005
-0.00171704
0.0598151
-0.00180241
0.0593143
-0.00186808
0.0588031
-0.00191579
0.0582862
-0.00194653
0.0577678
-0.00196114
0.057252
-0.00196069
0.0567422
-0.00194645
0.0562417
-0.0019198
0.0557533
-0.00188209
0.0552792
-0.00183483
0.0548215
-0.00177913
0.0543817
-0.00171713
0.0539613
-0.00164826
0.0535603
-0.00157863
0.0531813
-0.00149743
0.0528194
-0.00143465
-0.0013219
0.0610818
-0.00109798
-0.0614695
0.0606628
-0.00119146
0.0602171
-0.00127135
0.0597503
-0.00133562
0.0592676
-0.00138538
0.0587737
-0.00142187
0.0582729
-0.0014458
0.0577696
-0.00145777
0.0572674
-0.00145854
0.05677
-0.00144902
0.0562804
-0.00143023
0.0558014
-0.00140315
0.0553355
-0.00136888
0.0548846
-0.00132825
0.0544503
-0.00128283
0.0540343
-0.0012322
0.0536365
-0.00118086
0.0532599
-0.00112083
0.0528996
-0.00107434
-0.00099054
0.0609903
-0.000723463
-0.0613648
0.060585
-0.000786171
0.0601533
-0.000839631
0.0597003
-0.000882672
0.0592311
-0.000916111
0.05875
-0.000940794
0.0582614
-0.00095718
0.0577692
-0.000965639
0.0572774
-0.000966667
0.0567892
-0.000960866
0.0563079
-0.000948896
0.0558361
-0.000931407
0.0553764
-0.000909113
0.0549307
-0.000882575
0.0545007
-0.000852786
0.054088
-0.000819546
0.0536928
-0.000785688
0.0533182
-0.000746168
0.0529592
-0.000715347
-0.000659984
0.0609281
-0.00035814
-0.0612934
0.0605323
-0.000390373
0.0601101
-0.000417414
0.0596664
-0.000439017
0.0592061
-0.000455809
0.0587336
-0.000468269
0.058253
-0.000476605
0.0577684
-0.00048098
0.0572833
-0.000481642
0.0568014
-0.000478898
0.0563255
-0.000473074
0.0558586
-0.000464498
0.055403
-0.000453507
0.0549609
-0.000440414
0.0545337
-0.000425634
0.0541234
-0.000409235
0.05373
-0.000392263
0.0533568
-0.000372963
0.0529984
-0.000356973
-0.000330527
0.0608963
-0.0612544
0.0605059
0.0600885
0.0596495
0.0591937
0.0587254
0.0582488
0.0577678
0.0572862
0.0568073
0.0563342
0.0558697
0.0554162
0.0549758
0.0545501
0.0541409
0.0537486
0.0533757
0.0530187
0.0551348
0.00795483
-0.0541942
0.0562055
0.0122228
0.057394
0.0164387
0.0586844
0.0205405
0.0600337
0.0244941
0.0614046
0.0281956
0.0626192
0.0317103
0.0637156
0.0345706
0.0639621
0.0376594
0.0382684
0.0542144
0.00710321
-0.0533628
0.0552233
0.0112139
0.0563808
0.0152812
0.0576813
0.0192399
0.0590803
0.0230951
0.0605934
0.0266825
0.062041
0.0302627
0.0635698
0.0330419
0.0647043
0.0365249
0.0374483
0.0534069
0.00634869
-0.0526524
0.0543406
0.0102802
0.0554439
0.0141779
0.0567209
0.0179629
0.0581279
0.0216881
0.0597025
0.0251079
0.0613171
0.0286481
0.06305
0.031309
0.0647534
0.0348215
0.0361427
0.0527168
0.00568069
-0.0520488
0.0535785
0.0094184
0.0546258
0.0131306
0.055867
0.0167218
0.0572695
0.0202856
0.0588577
0.0235196
0.0605763
0.0269295
0.0623847
0.0295006
0.0643686
0.0328376
0.0344525
0.0521268
0.00508389
-0.05153
0.0529268
0.00861838
0.0539248
0.0121327
0.055126
0.0155205
0.0565141
0.0188975
0.0580846
0.0219492
0.0598444
0.0251697
0.0616814
0.0276637
0.0637771
0.0307418
0.0325085
0.0516166
0.00454575
-0.0510785
0.0523648
0.00787023
0.0533208
0.0111766
0.0544831
0.0143582
0.0558503
0.0175303
0.0573945
0.020405
0.0591597
0.0234045
0.0610151
0.0258083
0.0631405
0.0286164
0.0304227
0.0511714
0.00405684
-0.0506825
0.0518758
0.00716579
0.0527962
0.0102562
0.0539248
0.0132296
0.0552695
0.0161856
0.0567919
0.0188826
0.0585455
0.0216509
0.0604118
0.023942
0.0625319
0.0264962
0.0282671
0.0507814
0.00360993
-0.0503345
0.0514488
0.00649843
0.0523386
0.00936648
0.0534394
0.0121288
0.0547625
0.0148625
0.0562683
0.0173768
0.0580035
0.0199157
0.059873
0.0220725
0.0619777
0.0243915
0.0260811
0.0504398
0.00319922
-0.0500291
0.0510755
0.00586269
0.0519386
0.00850343
0.0530165
0.0110509
0.0543193
0.0135596
0.0558117
0.0158844
0.057528
0.0181993
0.059396
0.0202045
0.0614849
0.0223027
0.0238843
0.0501411
0.00281983
-0.0497617
0.0507497
0.00525408
0.0515892
0.00766384
0.0526478
0.00999238
0.0539322
0.0122752
0.0554131
0.0144036
0.0571129
0.0164995
0.0589768
0.0183406
0.0610514
0.0202281
0.021686
0.0498809
0.00246754
-0.0495286
0.0504662
0.0046688
0.0512853
0.00684478
0.0523272
0.00895043
0.0535954
0.011007
0.0550659
0.0129331
0.0567516
0.0148138
0.0586099
0.0164823
0.060672
0.0181661
0.0194903
0.0496557
0.00213863
-0.0493268
0.050221
0.00410352
0.0510223
0.0060435
0.0520499
0.00792285
0.0533041
0.00975277
0.054765
0.0114722
0.0564388
0.01314
0.0582909
0.0146302
0.0603417
0.0161153
0.0172992
0.0494625
0.00182977
-0.0491536
0.0500107
0.00355533
0.0507967
0.00525743
0.051812
0.00690762
0.0530542
0.00851053
0.0545065
0.0100199
0.0561701
0.0114765
0.0580159
0.0127843
0.0600565
0.0140747
0.0151138
0.0492986
0.00153785
-0.0490067
0.0498323
0.0030216
0.0506056
0.00448418
0.0516103
0.00590289
0.0528426
0.00727829
0.0542873
0.00857515
0.0559421
0.00982158
0.0577819
0.0109446
0.0598132
0.0120433
0.0129348
0.049162
0.00126033
-0.0488844
0.0496837
0.00249983
0.0504464
0.00372154
0.0514423
0.0049069
0.0526664
0.00605425
0.0541046
0.00713691
0.0557522
0.00817398
0.0575863
0.00911048
0.0596093
0.0100204
0.0107625
0.0490508
0.000993019
-0.0487835
0.0495626
0.00198797
0.0503167
0.00296746
0.0513057
0.00391788
0.0525233
0.00483667
0.0539563
0.00570392
0.055598
0.00653232
0.0574271
0.00728136
0.0594425
0.00800499
0.00859714
0.0489637
0.000735795
-0.0487065
0.0494677
0.00148391
0.0502151
0.00222007
0.0511987
0.00293429
0.0524114
0.00362399
0.0538404
0.00427497
0.0554774
0.00489533
0.0573022
0.00545653
0.059311
0.00599619
0.00643865
0.0488993
0.000485886
-0.0486494
0.0493973
0.000985835
0.0501399
0.00147753
0.0511197
0.00195449
0.052329
0.00241466
0.0537552
0.00284882
0.0553887
0.00326175
0.05721
0.00363523
0.0592131
0.00399315
0.00428691
0.0488559
0.000242009
-0.0486121
0.04935
0.000491776
0.0500895
0.000738055
0.0510671
0.000976873
0.0522746
0.00120711
0.0536993
0.00142418
0.0553307
0.00163034
0.0571493
0.00181656
0.0591477
0.00199478
0.0021412
0.0488335
-0.0485915
0.0493253
0.0500634
0.0510402
0.0522473
0.0536715
0.0553019
0.0571184
0.0591132
0.0261352
0.0387532
-0.0359144
-0.028974
0.0230192
0.0395186
-0.0364027
0.0198275
0.0404912
-0.0372995
0.0165703
0.0416704
-0.0384132
0.0132441
0.0430415
-0.0397153
0.00986347
0.0445759
-0.0411953
0.00650351
0.0459456
-0.0425857
0.00338782
0.0458187
-0.042703
0.000983466
0.0405363
-0.0381319
0.0223163
-0.0213328
0.023433
0.0416503
-0.0263301
0.0205205
0.0424311
0.01757
0.0434417
0.0145683
0.0446721
0.0115034
0.0461064
0.00839582
0.0476836
0.00534672
0.0489947
0.00261221
0.0485532
0.000647395
0.0425011
0.0229637
0.0206302
0.0443086
-0.0232885
0.0179237
0.0451376
0.0151864
0.046179
0.0124168
0.0474416
0.0096074
0.0489158
0.00678683
0.0505041
0.00407872
0.0517029
0.00176929
0.0508627
0.000285458
0.0439849
0.0232491
0.0175671
0.0467203
-0.0199787
0.0151048
0.0475999
0.012612
0.0486718
0.010096
0.0499576
0.00756097
0.0514509
0.00505201
0.0530131
0.00271461
0.0540403
0.000861353
0.0527159
-9.16991e-05
0.044938
0.0231574
0.0142471
0.0488745
-0.0164012
0.0120526
0.0497944
0.00983341
0.050891
0.00759846
0.0521926
0.00536389
0.0536854
0.0031971
0.0551799
0.00127385
0.0559635
-0.000124435
0.0541142
-0.000451543
0.0452651
0.0227059
0.0106977
0.0507456
-0.0125688
0.00879445
0.0516976
0.00687041
0.052815
0.00493952
0.0541235
0.00303218
0.0555928
0.00124009
0.056972
-0.000232116
0.0574357
-0.000984511
0.0548666
-0.000791979
0.0450725
0.0219139
0.006958
0.0523072
-0.00851968
0.00536408
0.0532916
0.0037516
0.0544275
0.00214633
0.0557287
0.000593377
0.0571457
-0.000782573
0.0583479
-0.0017244
0.0583775
-0.00190014
0.0550423
-0.00111529
0.0442877
0.0207986
0.00306571
0.0535518
-0.00431023
0.00178709
0.0545702
0.000507356
0.0557072
-0.000758728
0.0569948
-0.00193398
0.058321
-0.00285628
0.0592702
-0.00325365
0.0587749
-0.0027926
0.0545813
-0.00140848
0.0429036
0.0193902
-0.000943369
0.0545451
-4.99799e-05
-0.00189948
0.0555263
-0.00284973
0.0566575
-0.00375526
0.0579004
-0.00451912
0.0590848
-0.00495131
0.0597024
-0.00475326
0.0585769
-0.0036259
0.0534539
-0.00165574
0.0409334
0.0177344
-0.00505822
0.0044985
-0.0056666
-0.00626669
-0.00679271
-0.00711617
-0.00701291
-0.00617531
-0.00436647
-0.00184384
0.0363529
0.00358023
-0.0399332
0.0326476
0.00370531
0.0288023
0.0038453
0.0248026
0.00399977
0.0206278
0.00417478
0.0162533
0.00437449
0.0116689
0.00458436
0.00696532
0.00470362
0.00260022
0.0043651
0.00260022
0.0362269
0.00716264
-0.0398093
0.0325218
0.00741038
0.0286798
0.00768737
0.0246863
0.00799327
0.0205209
0.00834018
0.016159
0.00873638
0.0115901
0.00915319
0.00690697
0.0093868
0.00257744
0.00869463
0.00517766
0.035966
0.0107477
-0.039551
0.0322627
0.0111137
0.0284279
0.0115222
0.0244473
0.0119739
0.0203006
0.0124869
0.0159638
0.0130731
0.0114292
0.0136878
0.00679368
0.0140223
0.00252299
0.0129653
0.00770066
0.035554
0.0143309
-0.0391372
0.0318573
0.0148104
0.0280365
0.015343
0.0240778
0.0159326
0.0199613
0.0166034
0.0156645
0.01737
0.0111827
0.0181696
0.00661935
0.0185857
0.00244135
0.0171433
0.010142
0.0349719
0.0179053
-0.0385464
0.0312894
0.0184929
0.0274917
0.0191408
0.0235662
0.019858
0.0194937
0.0206759
0.0152532
0.0216104
0.0108449
0.0225779
0.00638117
0.0230494
0.0023305
0.021194
0.0124725
0.0342028
0.0214635
-0.037761
0.0305418
0.0221539
0.0267765
0.022906
0.0228971
0.0237374
0.0188847
0.0246883
0.0147198
0.0257753
0.0104087
0.0268891
0.00607469
0.0273834
0.00218862
0.0250801
0.0146611
0.033214
0.0249958
-0.0367463
0.0295867
0.0257813
0.0258698
0.0266229
0.0220548
0.0275525
0.0181217
0.0286213
0.014054
0.0298431
0.00986613
0.0310769
0.0056953
0.0315542
0.00201407
0.0287613
0.0166752
0.0320213
0.0285005
-0.0355261
0.0284191
0.0293835
0.024763
0.030279
0.0210316
0.0312839
0.0171979
0.032455
0.0132497
0.0337913
0.00921251
0.0351141
0.00524012
0.0355266
0.00180607
0.0321953
0.0184813
0.0304409
0.0320552
-0.0339957
0.0268909
0.0329335
0.023353
0.0338169
0.0197528
0.0348841
0.0160621
0.0361457
0.0122761
0.0375772
0.00843185
0.0389584
0.00470255
0.0392559
0.00156335
0.0353345
0.0200446
0.0288286
-0.0326878
0.0253594
0.0218768
0.0183477
0.0147781
0.01116
0.00753268
0.00408558
0.00128821
0.0442283
-0.000196869
0.044424
-0.000195659
0.0446112
-0.00018724
0.0447853
-0.000174112
0.0449417
-0.000156377
0.0450757
-0.000133958
0.0451822
-0.000106513
0.0452558
-7.35718e-05
0.0452906
-3.4845e-05
0.0452792
1.13794e-05
0.0452086
7.06421e-05
0.0450714
0.000137214
0.0448576
0.000213748
0.0445555
0.000302078
0.0441515
0.000404073
0.0436296
0.000521834
0.042972
0.000657606
0.0421564
0.000815585
0.0411577
0.000998742
0.00122453
0.0443715
-0.000383371
0.0445557
-0.000379891
0.0447307
-0.000362234
0.0448922
-0.000335624
0.0450359
-0.000300021
0.045157
-0.000255072
0.0452506
-0.000200072
0.0453112
-0.000134209
0.0453335
-5.71441e-05
0.0453074
3.75079e-05
0.0452226
0.000155415
0.0450712
0.000288565
0.0448433
0.000441667
0.044527
0.000618373
0.0441086
0.000822481
0.0435721
0.00105837
0.0428989
0.00133077
0.0420674
0.00164714
0.0410527
0.00201346
0.00246785
0.0446539
-0.000544948
0.0448129
-0.000538873
0.0449625
-0.000511878
0.0450985
-0.000471568
0.0452163
-0.000417879
0.0453115
-0.000350241
0.045379
-0.000267596
0.0454136
-0.000168828
0.0454099
-5.34505e-05
0.0453537
9.37505e-05
0.04524
0.000269072
0.04506
0.0004686
0.0448034
0.000698271
0.0444584
0.000963425
0.044011
0.00126981
0.0434451
0.00162428
0.0427416
0.00203433
0.0418777
0.00251102
0.040831
0.00306015
0.0037478
0.0450636
-0.000668143
0.0451833
-0.000658634
0.0452936
-0.000622107
0.0453899
-0.000567888
0.0454678
-0.000495789
0.0455225
-0.000404976
0.0455491
-0.000294136
0.0455425
-0.000162289
0.0455017
-1.26692e-05
0.0453996
0.000195914
0.0452416
0.000427089
0.0450176
0.000692607
0.0447169
0.000998924
0.0443277
0.00135264
0.0438361
0.00176139
0.0432257
0.00223472
0.0424774
0.0027826
0.0415666
0.0034218
0.0404718
0.00415499
0.00508239
0.0455847
-0.000738162
0.0456502
-0.000724144
0.045706
-0.000677913
0.0457478
-0.000609683
0.0457712
-0.000519183
0.0457718
-0.00040553
0.0457455
-0.000267856
0.0456877
-0.000104459
0.0455742
0.000100829
0.0454145
0.000355555
0.0451976
0.000643976
0.0449143
0.000975952
0.0445541
0.00135909
0.0441051
0.00180167
0.0435535
0.00231303
0.0428827
0.00290551
0.0420744
0.00359086
0.041103
0.00439324
0.0399494
0.00530858
0.00648541
0.046198
-0.000738835
0.046193
-0.000719107
0.0461783
-0.000663222
0.0461496
-0.000580973
0.0461023
-0.000471855
0.0460314
-0.000334675
0.0459322
-0.000168698
0.045804
2.37577e-05
0.045612
0.000292853
0.045376
0.000591601
0.0450831
0.000936835
0.0447234
0.00133563
0.0442866
0.00179594
0.0437606
0.00232766
0.043132
0.00294161
0.0423843
0.00365324
0.0415007
0.00447443
0.0404542
0.00543969
0.0392337
0.00652913
0.00795808
0.046883
-0.000652296
0.0467894
-0.000625532
0.0466865
-0.00056033
0.0465696
-0.000464097
0.0464334
-0.000335632
0.0462754
-0.000176678
0.0461052
1.57574e-06
0.0458559
0.000272995
0.0455777
0.000571067
0.0452507
0.000918573
0.0448657
0.00132187
0.0444132
0.00178811
0.043883
0.00232618
0.0432631
0.00294753
0.042541
0.00366377
0.0417
0.00449423
0.0407262
0.00544817
0.0395903
0.00657559
0.0382948
0.00782466
0.00950659
0.0476185
-0.000461095
0.0474204
-0.000427374
0.047213
-0.000353019
0.0469924
-0.00024342
0.0467595
-0.000102764
0.0465014
8.14563e-05
0.0461765
0.000326411
0.0458349
0.000614623
0.0454508
0.000955185
0.0450159
0.00135346
0.0445219
0.00181585
0.0439596
0.00235046
0.043319
0.00296671
0.0425892
0.00367731
0.0417593
0.00449372
0.0408139
0.00543961
0.0397447
0.00651737
0.0385193
0.007801
0.0371553
0.00918867
0.0111358
0.0483802
-0.000143675
0.0480558
-0.000103041
0.0477348
-3.19911e-05
0.0473965
9.48847e-05
0.0470251
0.000268656
0.0466203
0.000486279
0.0461922
0.000754475
0.0457276
0.00107927
0.0452182
0.0014645
0.0446566
0.0019151
0.0440345
0.002438
0.0433428
0.00304211
0.0425721
0.00373738
0.0417117
0.00453774
0.0407515
0.00545398
0.0396767
0.00651441
0.0384843
0.00770971
0.0371408
0.00914452
0.0357036
0.0106259
0.0128437
0.0491992
0.000324058
0.0487288
0.000367304
0.0482407
0.000456096
0.0477413
0.00059433
0.0472269
0.000783034
0.0466889
0.00102432
0.04612
0.00132329
0.0455142
0.00168508
0.0448646
0.00211408
0.0441638
0.0026159
0.043404
0.00319785
0.042577
0.00386906
0.0416752