/*--------------------------------*- C++ -*----------------------------------*\
| =========                 |                                                 |
| \\      /  F ield         | OpenFOAM: The Open Source CFD Toolbox           |
|  \\    /   O peration     | Version:  4.1                                   |
|   \\  /    A nd           | Web:      www.OpenFOAM.org                      |
|    \\/     M anipulation  |                                                 |
\*---------------------------------------------------------------------------*/
FoamFile
{
    version     2.0;
    format      ascii;
    class       volVectorField;
    location    "3.6";
    object      U;
}
// * * * * * * * * * * * * * * * * * * * * * * * * * * * * * * * * * * * * * //

dimensions      [0 1 -1 0 0 0 0];

internalField   nonuniform List<vector> 
2000
(
(0.0141398 -0.00635025 7.23558e-21)
(0.112438 -0.0553485 0)
(0.25956 -0.10665 7.4216e-21)
(0.423024 -0.153727 1.9004e-21)
(0.579348 -0.191248 -3.28301e-21)
(0.713227 -0.217369 1.63116e-21)
(0.817859 -0.232849 -5.28528e-23)
(0.893015 -0.239728 0)
(0.943404 -0.238774 3.95799e-21)
(0.967198 -0.241134 0)
(0.0294058 -0.0151422 -3.50076e-21)
(0.161771 -0.0723209 2.30162e-21)
(0.341065 -0.122313 -1.08239e-20)
(0.526885 -0.16265 -1.06451e-20)
(0.692264 -0.190928 -4.21027e-22)
(0.82335 -0.207577 -8.26421e-22)
(0.917357 -0.214821 8.85793e-22)
(0.978402 -0.215205 3.15879e-21)
(1.01375 -0.210384 -3.95799e-21)
(1.02641 -0.209827 -1.14403e-20)
(0.0493103 -0.0234977 4.60738e-21)
(0.221218 -0.0858888 -4.31563e-21)
(0.432705 -0.130792 5.45102e-21)
(0.635619 -0.161505 -6.42942e-22)
(0.802257 -0.179389 1.91451e-21)
(0.923303 -0.187042 6.75288e-23)
(1.00173 -0.187655 -1.65473e-21)
(1.04621 -0.183915 -3.15882e-21)
(1.06652 -0.177729 -5.05947e-21)
(1.06912 -0.175177 6.06747e-21)
(0.074173 -0.0306279 -4.62428e-22)
(0.290004 -0.0939556 -5.0997e-21)
(0.531144 -0.129834 0)
(0.743806 -0.149031 3.10095e-21)
(0.903691 -0.156777 -3.26447e-21)
(1.00893 -0.1571 0)
(1.06912 -0.153314 0)
(1.09702 -0.147569 0)
(1.10409 -0.141224 5.05959e-21)
(1.09762 -0.138293 -1.34206e-20)
(0.104021 -0.0356009 1.32507e-20)
(0.366329 -0.0944817 -2.60101e-22)
(0.631946 -0.117903 4.04229e-21)
(0.845983 -0.125092 2.36702e-21)
(0.992195 -0.12427 7.9096e-22)
(1.07808 -0.119713 -6.58303e-22)
(1.1196 -0.114008 0)
(1.1325 -0.108357 -2.79833e-21)
(1.12881 -0.1035 1.77735e-20)
(1.11609 -0.101268 -2.45724e-20)
(0.138493 -0.0373962 -2.12395e-20)
(0.447382 -0.0857607 8.21914e-22)
(0.730202 -0.0944025 -7.40729e-21)
(0.937498 -0.0905552 5.54795e-21)
(1.06509 -0.0836454 -4.92897e-22)
(1.13039 -0.0769166 3.7847e-22)
(1.15458 -0.0715484 0)
(1.15502 -0.0676085 2.79842e-21)
(1.14335 -0.0650868 -3.51005e-21)
(1.12626 -0.0642694 -1.94219e-20)
(0.176765 -0.0350018 0)
(0.529562 -0.0667017 0)
(0.82122 -0.0597189 -3.19536e-21)
(1.01499 -0.0470037 2.97481e-21)
(1.12129 -0.0369217 7.58557e-22)
(1.16668 -0.030599 -7.12181e-22)
(1.17599 -0.0274411 -6.87316e-21)
(1.16681 -0.0264142 6.49669e-21)
(1.14968 -0.0268496 9.85103e-21)
(1.12999 -0.0279542 -4.66432e-21)
(0.21754 -0.02754 3.92289e-21)
(0.608863 -0.0370394 0)
(0.901067 -0.0150899 -9.74253e-22)
(1.07648 0.0035835 2.94845e-21)
(1.16089 0.0139202 2.02125e-22)
(1.18841 0.0176482 0)
(1.18576 0.0172172 0)
(1.1697 0.0145798 0)
(1.14918 0.0109258 1.15817e-20)
(1.12816 0.00754897 -1.10083e-20)
(0.259104 -0.0144008 -2.19514e-21)
(0.681365 0.00259302 -2.9551e-22)
(0.966814 0.0376229 -1.75752e-21)
(1.12113 0.0590942 -2.96177e-24)
(1.18472 0.0670578 1.71436e-22)
(1.19719 0.0664901 -1.24831e-21)
(1.18558 0.0615454 0)
(1.16505 0.0548225 1.57345e-21)
(1.14279 0.0478409 8.51596e-21)
(1.12138 0.0418988 -6.44679e-21)
(0.299461 0.00462966 0)
(0.743682 0.0507862 -1.32282e-21)
(1.01659 0.0962015 0)
(1.14897 0.117431 -2.3081e-22)
(1.19396 0.120858 -1.97453e-22)
(1.19451 0.114797 9.32438e-22)
(1.17673 0.104802 0)
(1.15376 0.0938167 -1.57352e-21)
(1.13108 0.0835072 -1.73298e-21)
(1.11012 0.0748195 -2.05621e-21)
(-0.00552656 0.00424401 0)
(-0.016756 0.00523253 6.91095e-22)
(-0.0259992 0.00270607 0)
(-0.0271462 -0.00139824 1.05923e-21)
(-0.0196194 -0.00620394 3.71174e-22)
(-0.00406405 -0.0112221 -8.28964e-22)
(0.01851 -0.016112 7.80653e-22)
(0.0468268 -0.0206419 -8.5648e-22)
(0.0795895 -0.0245176 4.92212e-23)
(0.1152 -0.0272097 -8.94826e-22)
(-0.0063596 0.0122474 2.08552e-21)
(-0.0165331 0.0148997 -1.35912e-21)
(-0.0229804 0.00732873 1.24056e-21)
(-0.0206454 -0.00487163 -6.82986e-22)
(-0.00935323 -0.0191127 -3.54304e-21)
(0.0100493 -0.0338916 1.39954e-21)
(0.0363425 -0.048289 0)
(0.0680586 -0.0615733 8.53616e-22)
(0.103888 -0.0729083 8.89949e-22)
(0.142351 -0.0807517 0)
(-0.00783882 0.0188457 -1.36684e-21)
(-0.0158361 0.0222702 0)
(-0.0167669 0.00964715 -3.71171e-21)
(-0.00758616 -0.0103244 4.86909e-21)
(0.0111621 -0.0334467 -1.06525e-21)
(0.0381119 -0.0572895 0)
(0.0716207 -0.080357 0)
(0.109922 -0.101462 0)
(0.151542 -0.119361 -6.87862e-21)
(0.195399 -0.131626 6.53775e-21)
(-0.00959008 0.0233323 0)
(-0.0141447 0.0261317 2.07443e-21)
(-0.00695711 0.0083891 -4.0277e-21)
(0.0122896 -0.0188676 1.96065e-21)
(0.0419217 -0.0500331 -2.3805e-21)
(0.0798143 -0.0818475 7.39756e-21)
(0.123692 -0.112193 7.21037e-22)
(0.171241 -0.139561 -5.27899e-21)
(0.220646 -0.162497 -6.33574e-21)
(0.271759 -0.177863 9.05194e-21)
(-0.0111329 0.0253258 -1.90552e-21)
(-0.0106825 0.0256787 2.72682e-21)
(0.00716722 0.00262837 -3.54691e-22)
(0.0394975 -0.0313158 1.23458e-22)
(0.0831781 -0.0694389 -2.35597e-21)
(0.134974 -0.107694 5.52121e-21)
(0.191696 -0.143439 0)
(0.250291 -0.174931 2.30158e-21)
(0.308348 -0.200776 -2.53857e-21)
(0.36741 -0.217268 1.15479e-20)
(-0.0119484 0.0247431 -2.51074e-22)
(-0.00449527 0.0205909 -2.14822e-21)
(0.0266774 -0.00803006 -1.3112e-21)
(0.0750356 -0.0479599 -4.90412e-22)
(0.135579 -0.0916729 -1.59642e-21)
(0.203577 -0.134457 -1.81044e-21)
(0.274607 -0.173274 0)
(0.344755 -0.206283 -2.30147e-21)
(0.410856 -0.232479 -7.75567e-21)
(0.476832 -0.247612 1.98906e-21)
(-0.0114845 0.0217678 1.1135e-22)
(0.00561466 0.0110432 -2.68197e-22)
(0.0530093 -0.0233715 0)
(0.120289 -0.0684145 2.69577e-21)
(0.200057 -0.11601 -1.60966e-21)
(0.2856 -0.160999 0)
(0.370981 -0.200183 0)
(0.451457 -0.231873 0)
(0.52334 -0.255761 4.01129e-21)
(0.593057 -0.266987 1.01982e-20)
(-0.00920698 0.0167454 -4.38194e-22)
(0.0209857 -0.00239244 4.10463e-22)
(0.0878973 -0.0425951 6.219e-22)
(0.176867 -0.0915073 9.91999e-22)
(0.277437 -0.140828 -6.01365e-22)
(0.380423 -0.185297 -1.34218e-21)
(0.478327 -0.221964 -2.14213e-21)
(0.565914 -0.249671 -2.94046e-21)
(0.639858 -0.268877 -4.01112e-21)
(0.708114 -0.27435 4.64777e-21)
(-0.00456924 0.0100903 -4.86721e-21)
(0.0430245 -0.0187863 -4.65133e-22)
(0.133106 -0.0642707 -1.85098e-21)
(0.246112 -0.115247 -2.52861e-22)
(0.367731 -0.163637 7.93679e-22)
(0.486051 -0.204621 2.10108e-21)
(0.592453 -0.236032 -1.01471e-21)
(0.682038 -0.257693 2.94035e-21)
(0.753393 -0.270412 -3.56668e-21)
(0.81382 -0.270133 8.77785e-21)
(0.00301033 0.00223709 3.66074e-21)
(0.0731119 -0.0369288 0)
(0.190088 -0.0864225 1.80708e-21)
(0.328496 -0.136979 -3.81416e-23)
(0.469477 -0.181421 8.17603e-22)
(0.598738 -0.216065 -1.3948e-21)
(0.707649 -0.240071 3.75573e-21)
(0.792917 -0.254468 0)
(0.856378 -0.259796 3.5666e-21)
(0.902012 -0.257382 0)
(0.150257 -0.0277439 0)
(0.185356 -0.0278942 1.02153e-21)
(0.220553 -0.0278655 -2.07921e-21)
(0.255898 -0.0275729 9.25565e-22)
(0.291033 -0.0269929 0)
(0.325538 -0.0261627 -1.06668e-21)
(0.359074 -0.0251309 1.07197e-21)
(0.391377 -0.0239417 0)
(0.422242 -0.0226354 0)
(0.451508 -0.0212506 -1.17483e-22)
(0.479066 -0.0198229 0)
(0.50485 -0.0183845 0)
(0.528838 -0.0169628 0)
(0.551044 -0.0155811 0)
(0.571502 -0.0142581 1.30147e-22)
(0.590317 -0.0130083 -1.30822e-22)
(0.607432 -0.0118447 0)
(0.623508 -0.0107635 2.79882e-23)
(0.636649 -0.00982717 -2.81354e-23)
(0.654351 -0.00877423 0)
(0.177937 -0.0821434 0)
(0.211859 -0.0825671 -2.38499e-22)
(0.245463 -0.082467 0)
(0.27926 -0.0815653 -4.07084e-21)
(0.312828 -0.0798131 3.96085e-21)
(0.345711 -0.0773307 -2.61556e-22)
(0.377598 -0.0742604 2.06043e-21)
(0.408269 -0.0707297 -4.31824e-21)
(0.437546 -0.0668569 3.67042e-21)
(0.465288 -0.0627553 -2.03175e-21)
(0.4914 -0.0585305 -1.67454e-21)
(0.515828 -0.0542763 3.01456e-21)
(0.538557 -0.0500739 -1.53956e-21)
(0.559604 -0.0459913 -7.65329e-22)
(0.579006 -0.042084 6.06799e-22)
(0.596866 -0.0383934 -1.16894e-22)
(0.613117 -0.0349603 -9.2913e-23)
(0.628425 -0.031764 -1.10441e-22)
(0.640887 -0.029016 1.10976e-22)
(0.657812 -0.0258721 -1.61981e-23)
(0.231483 -0.133326 2.11305e-22)
(0.263039 -0.133935 2.38906e-22)
(0.293524 -0.133717 2.38019e-22)
(0.324268 -0.132139 0)
(0.354748 -0.129182 4.6277e-21)
(0.384447 -0.125072 -3.61566e-21)
(0.413119 -0.120037 0)
(0.440619 -0.114274 4.9815e-22)
(0.466819 -0.107971 2.42528e-22)
(0.491615 -0.101311 -3.08183e-21)
(0.514939 -0.0944613 2.59539e-22)
(0.536757 -0.0875737 3.70202e-21)
(0.557068 -0.0807775 1.78296e-22)
(0.575897 -0.0741808 1.60377e-22)
(0.593278 -0.0678726 1.37229e-22)
(0.609314 -0.0619172 -2.97507e-22)
(0.623925 -0.0563845 2.8134e-22)
(0.637758 -0.0512235 3.18353e-22)
(0.648976 -0.0468215 6.96174e-23)
(0.664386 -0.0417009 3.18091e-24)
(0.307422 -0.179191 6.51919e-21)
(0.335395 -0.179861 4.26819e-22)
(0.361345 -0.179473 1.18698e-22)
(0.38762 -0.177156 -7.58232e-21)
(0.413593 -0.172984 -7.34673e-22)
(0.43868 -0.167318 -2.53307e-22)
(0.462732 -0.160459 7.33625e-21)
(0.485703 -0.152657 -4.28514e-21)
(0.507532 -0.144157 -3.81681e-21)
(0.528158 -0.135201 3.66928e-21)
(0.54755 -0.126013 -2.4662e-22)
(0.565702 -0.116791 -3.80498e-21)
(0.58263 -0.107704 -1.7681e-22)
(0.598365 -0.0988958 -1.47126e-21)
(0.612939 -0.0904814 1.02944e-21)
(0.626447 -0.0825433 8.0728e-22)
(0.638797 -0.0751793 -7.22106e-22)
(0.650593 -0.0682978 0)
(0.660118 -0.062475 -1.19834e-22)
(0.673431 -0.0556029 -1.52912e-23)
(0.400826 -0.217661 -1.16723e-20)
(0.423932 -0.21833 6.30383e-21)
(0.444094 -0.217783 -6.70014e-21)
(0.464644 -0.214742 0)
(0.484879 -0.209437 4.82513e-22)
(0.504153 -0.202382 7.62206e-21)
(0.522433 -0.193935 3.99835e-22)
(0.53979 -0.184381 -1.94091e-22)
(0.556231 -0.174014 -7.37911e-21)
(0.571748 -0.163128 -4.37858e-22)
(0.586349 -0.15199 0)
(0.60006 -0.140835 3.79611e-22)
(0.612911 -0.129864 0)
(0.624938 -0.119243 3.05691e-22)
(0.636166 -0.109108 0)
(0.646674 -0.0995527 0)
(0.656354 -0.0907035 -1.74634e-22)
(0.665741 -0.0824116 2.03462e-22)
(0.673296 -0.0754648 -1.78754e-22)
(0.68413 -0.067117 5.22636e-23)
(0.505552 -0.24686 0)
(0.522487 -0.247636 3.87486e-22)
(0.535897 -0.247069 1.34237e-20)
(0.54976 -0.243454 -1.3002e-20)
(0.563326 -0.237231 4.38357e-22)
(0.575911 -0.22907 0)
(0.587601 -0.219373 7.2743e-21)
(0.598596 -0.208453 -1.3948e-20)
(0.608978 -0.196645 7.55158e-21)
(0.61879 -0.184286 4.14521e-22)
(0.628084 -0.171677 3.90583e-22)
(0.636915 -0.159076 3.61793e-22)
(0.645322 -0.146703 0)
(0.653338 -0.134738 -1.90211e-21)
(0.660968 -0.123332 4.31211e-21)
(0.668267 -0.11258 -1.865e-21)
(0.675112 -0.102639 1.66647e-22)
(0.681938 -0.0932871 1.21018e-22)
(0.687436 -0.0855437 -5.04597e-23)
(0.695631 -0.0760332 4.9738e-23)
(0.614604 -0.265379 -9.8289e-21)
(0.62429 -0.266585 0)
(0.630461 -0.266252 3.7446e-22)
(0.637129 -0.26235 -8.24964e-22)
(0.643489 -0.255568 -8.59546e-22)
(0.648881 -0.246706 -4.31526e-22)
(0.65353 -0.236198 -4.35008e-22)
(0.657785 -0.224393 6.45005e-21)
(0.661813 -0.211672 -7.72821e-21)
(0.665713 -0.198399 -7.12962e-21)
(0.669572 -0.184887 5.91683e-21)
(0.673458 -0.171401 -7.08789e-22)
(0.677406 -0.158167 2.42944e-21)
(0.681429 -0.145369 -5.82517e-22)
(0.685507 -0.13317 -2.61784e-21)
(0.689656 -0.121657 -2.04308e-22)
(0.693736 -0.111028 2.34699e-22)
(0.698057 -0.100969 -2.98486e-22)
(0.701583 -0.0927504 -4.47082e-22)
(0.70719 -0.0823941 -2.42148e-23)
(0.720844 -0.272711 0)
(0.7229 -0.274897 1.11867e-20)
(0.721948 -0.275131 -1.15138e-20)
(0.72135 -0.271363 4.04231e-22)
(0.720307 -0.264542 8.29557e-22)
(0.718349 -0.255496 4.31132e-22)
(0.715878 -0.244665 8.56544e-22)
(0.713399 -0.232487 0)
(0.711191 -0.219408 4.1678e-22)
(0.709397 -0.205806 3.98605e-22)
(0.70811 -0.191987 3.70609e-22)
(0.707377 -0.178201 6.89981e-22)
(0.707202 -0.164662 0)
(0.707562 -0.151548 0)
(0.7084 -0.139025 2.40124e-22)
(0.70968 -0.127173 1.8221e-21)
(0.711258 -0.116235 -1.26057e-21)
(0.713294 -0.105797 1.13032e-22)
(0.715062 -0.0973893 2.28813e-22)
(0.718287 -0.0864692 -6.66304e-23)
(0.818186 -0.270598 -9.15171e-21)
(0.813355 -0.274658 0)
(0.805684 -0.275634 0)
(0.797776 -0.272291 1.26766e-20)
(0.78931 -0.265766 1.29425e-22)
(0.780267 -0.256846 -2.63746e-20)
(0.771143 -0.246051 1.28276e-20)
(0.762476 -0.233927 0)
(0.754633 -0.220951 0)
(0.747791 -0.207488 0)
(0.742014 -0.193822 -1.8387e-22)
(0.737298 -0.180185 -5.0626e-22)
(0.733595 -0.166773 -4.62658e-21)
(0.730832 -0.15375 4.45935e-21)
(0.728912 -0.141288 -1.71343e-21)
(0.727744 -0.129452 1.50818e-21)
(0.72719 -0.118539 0)
(0.727257 -0.108028 -5.45668e-23)
(0.727544 -0.0997073 -6.60924e-23)
(0.728726 -0.0885397 0)
(0.903276 -0.262409 1.46343e-22)
(0.893138 -0.266577 1.10999e-20)
(0.878501 -0.267001 -1.09841e-20)
(0.862904 -0.263841 0)
(0.847319 -0.257863 -1.3136e-20)
(0.832046 -0.249714 2.62962e-20)
(0.817389 -0.23994 -1.31596e-20)
(0.803719 -0.22895 0)
(0.791365 -0.217054 -6.25435e-21)
(0.780482 -0.204535 1.21269e-20)
(0.77109 -0.191657 -6.05533e-21)
(0.763142 -0.178654 1.65451e-22)
(0.756555 -0.16574 0)
(0.751216 -0.153098 4.09905e-21)
(0.747006 -0.14093 -5.60654e-21)
(0.743787 -0.129305 1.66181e-21)
(0.741443 -0.118594 1.02647e-21)
(0.739824 -0.108183 -7.26083e-22)
(0.738867 -0.10011 -3.4094e-22)
(0.738377 -0.088991 0)
(0.980158 -0.233633 0)
(0.959224 -0.238035 0)
(0.934778 -0.23972 0)
(0.911568 -0.239545 0)
(0.890423 -0.237255 0)
(0.870823 -0.232815 0)
(0.852541 -0.226506 0)
(0.835716 -0.218625 0)
(0.820517 -0.209441 0)
(0.807002 -0.199221 0)
(0.795148 -0.188229 0)
(0.784893 -0.176721 0)
(0.776156 -0.164943 0)
(0.768822 -0.153113 0)
(0.762783 -0.14148 0)
(0.757868 -0.130137 0)
(0.754017 -0.119532 0)
(0.750912 -0.109009 0)
(0.748862 -0.100788 0)
(0.746721 -0.0892718 0)
(0.999588 -0.209112 0)
(0.979475 -0.214965 0)
(0.95496 -0.217876 0)
(0.931447 -0.218459 0)
(0.91017 -0.216898 0)
(0.890491 -0.213332 0)
(0.87202 -0.208022 0)
(0.85485 -0.201276 0)
(0.839152 -0.193375 0)
(0.82499 -0.184563 0)
(0.812351 -0.175064 0)
(0.801192 -0.165084 0)
(0.791461 -0.154825 0)
(0.783071 -0.144461 0)
(0.775953 -0.134211 0)
(0.769934 -0.124136 0)
(0.765042 -0.114671 0)
(0.760804 -0.105155 0)
(0.757936 -0.0977602 0)
(0.75424 -0.0871455 0)
(1.00864 -0.184454 0)
(0.989447 -0.191328 0)
(0.965967 -0.195333 0)
(0.943197 -0.19685 0)
(0.922499 -0.196298 0)
(0.903308 -0.193937 0)
(0.885201 -0.189986 0)
(0.868242 -0.184681 0)
(0.852603 -0.178255 0)
(0.838357 -0.17092 0)
(0.825498 -0.162872 0)
(0.813991 -0.154294 0)
(0.803798 -0.14537 0)
(0.794849 -0.136262 0)
(0.787101 -0.127174 0)
(0.780379 -0.118161 0)
(0.774787 -0.109649 0)
(0.769718 -0.100992 0)
(0.766246 -0.0942805 0)
(0.761384 -0.0844342 0)
(1.00971 -0.161965 0)
(0.992103 -0.169373 0)
(0.970408 -0.174132 0)
(0.949105 -0.176461 0)
(0.929548 -0.176816 0)
(0.911306 -0.175504 0)
(0.893997 -0.17272 0)
(0.877664 -0.168654 0)
(0.862472 -0.163504 0)
(0.848502 -0.157462 0)
(0.835761 -0.150704 0)
(0.824228 -0.143392 0)
(0.813883 -0.135693 0)
(0.804669 -0.12775 0)
(0.796572 -0.119752 0)
(0.789409 -0.111742 0)
(0.783357 -0.104128 0)
(0.777695 -0.0962871 0)
(0.773798 -0.0902085 0)
(0.76806 -0.0810976 0)
(1.00589 -0.141876 0)
(0.990112 -0.149437 0)
(0.970529 -0.15462 0)
(0.951051 -0.157535 0)
(0.932954 -0.158602 0)
(0.915935 -0.158129 0)
(0.899676 -0.156298 0)
(0.884217 -0.153266 0)
(0.869711 -0.149204 0)
(0.856246 -0.144282 0)
(0.843845 -0.138655 0)
(0.8325 -0.132469 0)
(0.82221 -0.125872 0)
(0.812928 -0.118988 0)
(0.80467 -0.111993 0)
(0.797246 -0.104918 0)
(0.7909 -0.0981484 0)
(0.784816 -0.0910872 0)
(0.780623 -0.0856121 0)
(0.77421 -0.077239 0)
(0.999616 -0.12421 0)
(0.985602 -0.131633 0)
(0.968153 -0.136965 0)
(0.950576 -0.140238 0)
(0.934032 -0.141819 0)
(0.918325 -0.14199 0)
(0.90321 -0.140916 0)
(0.888728 -0.138731 0)
(0.875024 -0.13558 0)
(0.862188 -0.13161 0)
(0.850255 -0.126958 0)
(0.839233 -0.121754 0)
(0.829133 -0.116128 0)
(0.81992 -0.110192 0)
(0.811631 -0.104103 0)
(0.804076 -0.0978825 0)
(0.797555 -0.0918923 0)
(0.791176 -0.0855633 0)
(0.786777 -0.080656 0)
(0.779851 -0.0730012 0)
(0.992485 -0.108789 0)
(0.98004 -0.115853 0)
(0.96456 -0.121117 0)
(0.948783 -0.124556 0)
(0.933735 -0.126472 0)
(0.919307 -0.127113 0)
(0.905321 -0.126622 0)
(0.891823 -0.125112 0)
(0.878947 -0.122706 0)
(0.866784 -0.11953 0)
(0.85538 -0.115707 0)
(0.844751 -0.111348 0)
(0.834921 -0.10657 0)
(0.825862 -0.101471 0)
(0.817633 -0.096192 0)
(0.810039 -0.0907446 0)
(0.80343 -0.0854664 0)
(0.796852 -0.0798186 0)
(0.792317 -0.0754399 0)
(0.785004 -0.0684765 0)
(0.98542 -0.0952813 0)
(0.974291 -0.101854 0)
(0.960533 -0.106902 0)
(0.94637 -0.110358 0)
(0.932689 -0.112463 0)
(0.919442 -0.113426 0)
(0.90651 -0.113369 0)
(0.893946 -0.112387 0)
(0.881871 -0.110581 0)
(0.870376 -0.108062 0)
(0.859511 -0.104935 0)
(0.849302 -0.101298 0)
(0.839782 -0.0972555 0)
(0.830928 -0.0928899 0)
(0.822815 -0.0883293 0)
(0.815245 -0.0835771 0)
(0.808611 -0.0789448 0)
(0.801908 -0.0739268 0)
(0.797289 -0.0700373 0)
(0.78969 -0.0637364 0)
(0.978838 -0.083356 0)
(0.968786 -0.0893753 0)
(0.956495 -0.094113 0)
(0.943741 -0.0974778 0)
(0.93127 -0.0996568 0)
(0.919084 -0.100822 0)
(0.907107 -0.101076 0)
(0.895397 -0.100497 0)
(0.884068 -0.0991699 0)
(0.873205 -0.0971883 0)
(0.862863 -0.0946436 0)
(0.853073 -0.0916218 0)
(0.843875 -0.0882125 0)
(0.83525 -0.0844881 0)
(0.827286 -0.0805622 0)
(0.819783 -0.0764324 0)
(0.813168 -0.0723837 0)
(0.806397 -0.0679459 0)
(0.801735 -0.0645073 0)
(0.79393 -0.0588391 0)
(0.972885 -0.0727365 0)
(0.963712 -0.0781792 0)
(0.952657 -0.0825479 0)
(0.941113 -0.0857426 0)
(0.929698 -0.0879071 0)
(0.918445 -0.0891804 0)
(0.907318 -0.0896457 0)
(0.896376 -0.0893676 0)
(0.885725 -0.0884175 0)
(0.875444 -0.0868734 0)
(0.865593 -0.084814 0)
(0.856204 -0.0823134 0)
(0.847324 -0.0794495 0)
(0.838935 -0.0762845 0)
(0.831138 -0.0729189 0)
(0.823729 -0.0693458 0)
(0.817163 -0.0658238 0)
(0.810364 -0.0619201 0)
(0.805687 -0.0588966 0)
(0.797742 -0.0538313 0)
(0.967583 -0.0631933 0)
(0.959131 -0.0680568 0)
(0.949113 -0.0720233 0)
(0.9386 -0.0749932 0)
(0.928097 -0.0770761 0)
(0.917658 -0.0783828 0)
(0.907276 -0.07898 0)
(0.897016 -0.0789201 0)
(0.886971 -0.0782621 0)
(0.877218 -0.0770714 0)
(0.867817 -0.0754148 0)
(0.858802 -0.0733556 0)
(0.850224 -0.0709613 0)
(0.842069 -0.0682847 0)
(0.834443 -0.0654139 0)
(0.827142 -0.0623394 0)
(0.820644 -0.0592934 0)
(0.813849 -0.0558818 0)
(0.809179 -0.0532406 0)
(0.801143 -0.0487497 0)
(0.96291 -0.054538 0)
(0.95505 -0.0588319 0)
(0.9459 -0.0623792 0)
(0.936261 -0.0650869 0)
(0.926538 -0.067038 0)
(0.916803 -0.0683198 0)
(0.907072 -0.068985 0)
(0.897408 -0.0690757 0)
(0.887899 -0.0686401 0)
(0.878618 -0.0677325 0)
(0.869622 -0.0664092 0)
(0.86095 -0.0647239 0)
(0.852653 -0.0627343 0)
(0.84472 -0.0604849 0)
(0.837263 -0.0580525 0)
(0.830077 -0.0554257 0)
(0.823658 -0.0528111 0)
(0.816886 -0.0498543 0)
(0.812237 -0.0475662 0)
(0.80415 -0.0436229 0)
(0.958831 -0.0466163 0)
(0.95146 -0.0503555 0)
(0.943033 -0.053477 0)
(0.934129 -0.0558973 0)
(0.92507 -0.057679 0)
(0.915937 -0.0588905 0)
(0.906766 -0.0595728 0)
(0.897621 -0.059759 0)
(0.88858 -0.0594885 0)
(0.879713 -0.0588058 0)
(0.871078 -0.0577577 0)
(0.862713 -0.0563893 0)
(0.854673 -0.0547494 0)
(0.846945 -0.0528752 0)
(0.839649 -0.0508328 0)
(0.832578 -0.0486101 0)
(0.826241 -0.0463882 0)
(0.819508 -0.0438533 0)
(0.814889 -0.0418926 0)
(0.80678 -0.0384727 0)
(0.955316 -0.039299 0)
(0.948345 -0.0425003 0)
(0.940517 -0.0451955 0)
(0.932226 -0.0473117 0)
(0.923724 -0.0488963 0)
(0.915102 -0.0500023 0)
(0.906407 -0.0506611 0)
(0.897705 -0.0508987 0)
(0.889067 -0.0507464 0)
(0.88056 -0.0502405 0)
(0.87224 -0.0494194 0)
(0.864145 -0.0483204 0)
(0.856333 -0.0469841 0)
(0.848791 -0.0454413 0)
(0.841645 -0.0437481 0)
(0.834683 -0.0418923 0)
(0.828429 -0.0400299 0)
(0.821741 -0.0378887 0)
(0.817158 -0.0362331 0)
(0.809046 -0.0333148 0)
(0.952338 -0.0324751 0)
(0.945693 -0.0351554 0)
(0.938353 -0.0374271 0)
(0.930565 -0.0392287 0)
(0.922525 -0.040596 0)
(0.914327 -0.0415695 0)
(0.906032 -0.042173 0)
(0.897702 -0.0424266 0)
(0.889405 -0.0423548 0)
(0.881202 -0.0419866 0)
(0.873152 -0.041353 0)
(0.865291 -0.0404843 0)
(0.857677 -0.0394135 0)
(0.8503 -0.0381658 0)
(0.843287 -0.0367876 0)
(0.836426 -0.0352675 0)
(0.83025 -0.033737 0)
(0.82361 -0.0319653 0)
(0.819064 -0.0305959 0)
(0.810963 -0.0281599 0)
(0.949875 -0.0260471 0)
(0.943489 -0.0282224 0)
(0.936541 -0.0300753 0)
(0.929158 -0.0315561 0)
(0.92149 -0.0326915 0)
(0.913638 -0.0335122 0)
(0.905668 -0.034036 0)
(0.897644 -0.0342778 0)
(0.889628 -0.0342567 0)
(0.881678 -0.033995 0)
(0.873852 -0.0335172 0)
(0.866187 -0.0328471 0)
(0.858742 -0.032011 0)
(0.851505 -0.0310287 0)
(0.844606 -0.0299376 0)
(0.837835 -0.0287278 0)
(0.831729 -0.027506 0)
(0.825136 -0.0260837 0)
(0.820625 -0.0249846 0)
(0.812543 -0.0230147 0)
(0.947907 -0.0199302 0)
(0.941722 -0.0216143 0)
(0.935078 -0.0230532 0)
(0.928011 -0.0242094 0)
(0.920635 -0.0251029 0)
(0.913053 -0.025756 0)
(0.905341 -0.0261816 0)
(0.897558 -0.0263907 0)
(0.889765 -0.026397 0)
(0.882018 -0.0262177 0)
(0.874372 -0.0258708 0)
(0.866864 -0.0253745 0)
(0.859556 -0.0247487 0)
(0.852433 -0.0240083 0)
(0.84563 -0.023182 0)
(0.838935 -0.0222621 0)
(0.832888 -0.0213304 0)
(0.826336 -0.0202415 0)
(0.821857 -0.0193996 0)
(0.813796 -0.0178824 0)
(0.946416 -0.0140579 0)
(0.940381 -0.01526 0)
(0.933964 -0.0162874 0)
(0.92713 -0.0171152 0)
(0.919971 -0.0177583 0)
(0.912592 -0.0182323 0)
(0.905071 -0.0185459 0)
(0.897469 -0.0187063 0)
(0.889844 -0.0187228 0)
(0.882248 -0.0186074 0)
(0.874737 -0.0183727 0)
(0.86735 -0.0180313 0)
(0.860144 -0.0175972 0)
(0.85311 -0.017081 0)
(0.84638 -0.0165025 0)
(0.839743 -0.0158569 0)
(0.833743 -0.0152007 0)
(0.827225 -0.0144333 0)
(0.82277 -0.0138372 0)
(0.814729 -0.0127639 0)
(0.945398 -0.00834205 0)
(0.939472 -0.00907615 0)
(0.93321 -0.00969855 0)
(0.926534 -0.0101981 0)
(0.919519 -0.0105864 0)
(0.912274 -0.0108739 0)
(0.904881 -0.0110659 0)
(0.8974 -0.0111664 0)
(0.889885 -0.011181 0)
(0.882391 -0.0111167 0)
(0.874971 -0.010981 0)
(0.867663 -0.0107813 0)
(0.860527 -0.0105259 0)
(0.853552 -0.0102213 0)
(0.846872 -0.00987846 0)
(0.840275 -0.00949649 0)
(0.834306 -0.00910477 0)
(0.827813 -0.00865172 0)
(0.823374 -0.00829058 0)
(0.815348 -0.00765885 0)
(0.944859 -0.00268147 0)
(0.939007 -0.00296642 0)
(0.932833 -0.00319613 0)
(0.92624 -0.00337459 0)
(0.919298 -0.00351048 0)
(0.912118 -0.00361008 0)
(0.904787 -0.00367648 0)
(0.897365 -0.00371165 0)
(0.889905 -0.00371777 0)
(0.88246 -0.00369738 0)
(0.875085 -0.00365307 0)
(0.867817 -0.00358745 0)
(0.860716 -0.00350312 0)
(0.853771 -0.00340255 0)
(0.847115 -0.00328882 0)
(0.84054 -0.00316271 0)
(0.834585 -0.00303183 0)
(0.828109 -0.00288328 0)
(0.82367 -0.0027601 0)
(0.815658 -0.00255474 0)
(1.09111 0.0661783 2.0089e-21)
(1.10174 0.0390403 0)
(1.10869 0.0102143 -3.77698e-22)
(1.11157 -0.0201649 -1.1583e-20)
(1.11028 -0.0518793 1.8551e-20)
(1.10376 -0.0847817 0)
(1.09241 -0.118444 1.43811e-20)
(1.07086 -0.153209 0)
(1.0484 -0.185524 1.19624e-20)
(0.992088 -0.223824 -1.9719e-22)
(1.07365 0.0581503 -2.29207e-21)
(1.08331 0.0345719 4.70073e-22)
(1.08982 0.00954144 -4.70966e-22)
(1.09262 -0.0168283 -1.21512e-21)
(1.09263 -0.0442952 -1.12209e-20)
(1.08742 -0.0730177 -6.71747e-22)
(1.08146 -0.101822 0)
(1.06346 -0.133585 -1.7827e-20)
(1.05482 -0.159337 0)
(1.01148 -0.200192 -1.50294e-20)
(1.05861 0.050644 4.71674e-21)
(1.06695 0.0299529 0)
(1.07279 0.00811245 -4.55379e-22)
(1.07513 -0.0148901 -6.12157e-22)
(1.07599 -0.0384956 1.19073e-20)
(1.07134 -0.0636635 0)
(1.0688 -0.0875298 2.10027e-20)
(1.05386 -0.116508 1.83631e-20)
(1.05047 -0.136321 0)
(1.02051 -0.175456 1.48755e-20)
(1.04581 0.0441492 -2.12988e-21)
(1.05292 0.0259817 8.90422e-21)
(1.05805 0.00698128 0)
(1.05986 -0.0131455 1.43667e-20)
(1.06104 -0.033369 8.06137e-22)
(1.05681 -0.0556614 -1.54354e-21)
(1.05555 -0.0755112 -2.01586e-20)
(1.04354 -0.101902 -6.75947e-22)
(1.04052 -0.117954 -2.00168e-20)
(1.0207 -0.152814 0)
(1.03484 0.0385437 0)
(1.04094 0.022581 -8.6771e-21)
(1.04538 0.00602966 -9.88701e-21)
(1.04672 -0.0116767 1.45846e-21)
(1.04773 -0.0290893 -9.42829e-22)
(1.04392 -0.0489177 -7.90501e-22)
(1.04253 -0.0657587 -2.35188e-20)
(1.03313 -0.0893103 -1.39813e-21)
(1.02917 -0.103073 -9.16464e-22)
(1.01578 -0.132932 1.98037e-20)
(1.02531 0.0336469 2.70521e-21)
(1.0306 0.0196086 5.89011e-22)
(1.0344 0.00514963 -1.46938e-21)
(1.03539 -0.0104645 5.40284e-22)
(1.03598 -0.0255754 -1.5551e-20)
(1.03261 -0.0431153 0)
(1.03063 -0.0576884 2.5755e-20)
(1.02323 -0.0782167 -7.72712e-22)
(1.01843 -0.0904672 4.40045e-20)
(1.00858 -0.1157 -4.06033e-20)
(1.01696 0.029332 -2.71853e-21)
(1.0216 0.0169962 -5.14969e-21)
(1.02481 0.0043447 9.21684e-21)
(1.02557 -0.00939461 -1.65256e-20)
(1.0257 -0.0225935 -1.67424e-21)
(1.02273 -0.0379707 -1.496e-20)
(1.02018 -0.0507829 8.143e-22)
(1.01406 -0.0684474 -1.5653e-21)
(1.0088 -0.0795646 -2.17865e-20)
(1.00071 -0.100859 2.07893e-20)
(1.00963 0.0255119 0)
(1.01372 0.0146986 1.11018e-20)
(1.01643 0.00362556 -1.21313e-21)
(1.01701 -0.00841347 9.11426e-21)
(1.01675 -0.0199917 -5.62504e-22)
(1.01406 -0.03338 2.95666e-20)
(1.01111 -0.0447523 -1.34598e-20)
(1.00572 -0.0598923 0)
(1.00029 -0.0700021 0)
(0.993071 -0.0880124 0)
(1.0032 0.0221205 0)
(1.00682 0.0126741 -1.01039e-20)
(1.00909 0.00299191 -6.47078e-22)
(1.00952 -0.00751077 9.10816e-21)
(1.00893 -0.0176815 1.68265e-20)
(1.00641 -0.0292858 -1.64795e-20)
(1.00324 -0.0393954 1.61715e-20)
(0.998248 -0.0523612 -8.74892e-22)
(0.99283 -0.0614907 0)
(0.986065 -0.0767665 1.1801e-20)
(0.997572 0.0191016 3.57192e-22)
(1.00078 0.0108853 5.76468e-21)
(1.00268 0.00244185 9.04872e-21)
(1.00295 -0.00667868 -5.31388e-22)
(1.00213 -0.0155949 1.13842e-21)
(0.999675 -0.0256169 -1.7452e-20)
(0.996396 -0.0345646 1.71352e-20)
(0.991628 -0.0456651 -9.00021e-22)
(0.986288 -0.0538352 0)
(0.979796 -0.0668155 -2.3787e-20)
(0.99267 0.0164067 0)
(0.995519 0.00930077 5.66135e-21)
(0.997097 0.00197314 1.78013e-22)
(0.997209 -0.00590455 0)
(0.996206 -0.0136808 0)
(0.99377 -0.022302 1.54581e-20)
(0.990438 -0.0301633 -1.42219e-20)
(0.985808 -0.0396543 -8.62987e-22)
(0.980553 -0.046897 4.52473e-22)
(0.974253 -0.0579211 1.23771e-20)
(0.988428 0.0139933 0)
(0.990961 0.0078938 -1.07553e-20)
(0.99227 0.00158138 -1.19254e-20)
(0.992231 -0.00517525 1.84133e-21)
(0.991081 -0.0119036 -1.18897e-21)
(0.988631 -0.0192792 -1.03088e-21)
(0.985267 -0.0261216 1.97078e-21)
(0.980726 -0.0342065 1.28817e-20)
(0.975544 -0.04056 1.27421e-21)
(0.969392 -0.0498915 -3.99895e-22)
(0.984788 0.0118224 0)
(0.987048 0.0066404 5.78761e-21)
(0.988129 0.00125976 -6.57577e-22)
(0.98795 -0.00447935 6.5212e-22)
(0.986679 -0.0102374 0)
(0.984202 -0.0164953 0)
(0.980812 -0.0223813 0)
(0.976332 -0.0292198 -1.46366e-20)
(0.971203 -0.0347248 1.37689e-20)
(0.965165 -0.0425719 0)
(0.981702 0.00985707 0)
(0.983728 0.00551716 3.68163e-21)
(0.984618 0.000999154 4.82838e-21)
(0.984316 -0.00380811 6.39991e-21)
(0.982944 -0.00866225 -1.22804e-21)
(0.980434 -0.0139051 7.79461e-21)
(0.977019 -0.0188917 -7.13842e-21)
(0.972581 -0.0246099 0)
(0.967486 -0.0293059 6.52768e-22)
(0.961535 -0.035834 -1.31971e-20)
(0.979128 0.00807814 -7.99974e-22)
(0.980959 0.00451061 -2.97971e-21)
(0.981692 0.000793873 -6.23962e-21)
(0.981284 -0.00315343 -4.50118e-21)
(0.979828 -0.00716081 0)
(0.977285 -0.0114713 -9.94143e-21)
(0.973846 -0.0156087 1.02279e-20)
(0.969435 -0.0203064 -9.76407e-22)
(0.964359 -0.024229 -6.80793e-21)
(0.95847 -0.0295693 1.90953e-20)
(0.977026 0.00642446 8.04088e-22)
(0.978699 0.00359197 -2.30007e-21)
(0.979309 0.00063189 2.10721e-21)
(0.978815 -0.00251189 -5.27916e-21)
(0.97729 -0.00571953 0)
(0.974718 -0.00916235 0)
(0.971258 -0.0124933 1.00732e-21)
(0.966862 -0.0162482 -9.57721e-21)
(0.961794 -0.019428 -6.05296e-21)
(0.955944 -0.023683 -6.36715e-21)
(0.975396 0.00487362 0)
(0.976937 0.0027435 3.79136e-21)
(0.977444 0.000502766 -1.41373e-21)
(0.976878 -0.00188259 4.68951e-21)
(0.9753 -0.00432885 1.26861e-21)
(0.972702 -0.00695428 -1.10282e-21)
(0.969223 -0.00951298 2.09219e-21)
(0.964833 -0.0123844 6.64515e-21)
(0.959764 -0.0148458 0)
(0.953934 -0.0180928 0)
(0.974193 0.00343175 0)
(0.975634 0.00195941 1.5442e-21)
(0.976062 0.000401072 -2.87452e-21)
(0.975443 -0.00126422 0)
(0.973825 -0.00298206 -2.4852e-21)
(0.971209 -0.00483033 -1.11017e-21)
(0.967713 -0.0066452 -3.12923e-21)
(0.963323 -0.00867877 -9.33882e-22)
(0.958245 -0.0104412 4.79271e-22)
(0.952417 -0.0127377 4.12853e-22)
(0.973394 0.00207455 0)
(0.974762 0.00123592 -1.55164e-21)
(0.975137 0.000343163 -1.43142e-21)
(0.974485 -0.000621132 2.00486e-21)
(0.972843 -0.00162793 1.20386e-21)
(0.970214 -0.00272306 1.15008e-21)
(0.966706 -0.00381197 5.22544e-21)
(0.962311 -0.0050409 -3.85568e-21)
(0.95722 -0.00612304 9.04358e-22)
(0.951382 -0.00752262 0)
(0.97297 0.000685451 0)
(0.97431 0.000490918 7.64636e-22)
(0.974664 0.000270929 -7.36256e-22)
(0.973997 1.31241e-05 7.0225e-22)
(0.972344 -0.000276144 0)
(0.969708 -0.00061434 -1.15592e-21)
(0.966189 -0.000971577 1.02916e-21)
(0.961782 -0.00139855 9.33167e-22)
(0.956671 -0.00179988 0)
(0.95082 -0.0023343 0)
(0.798355 0.243241 0)
(0.788978 0.268834 -4.54993e-20)
(0.783923 0.29971 0)
(0.780036 0.337047 -1.4921e-19)
(0.775657 0.381086 5.6477e-20)
(0.769488 0.432268 1.6004e-21)
(0.756423 0.487364 4.89522e-20)
(0.71774 0.529599 -5.72482e-21)
(0.604543 0.507387 0)
(0.326639 0.29151 5.14527e-20)
(0.835107 0.243453 8.42269e-20)
(0.830609 0.27217 4.54979e-20)
(0.831761 0.302377 -4.33359e-20)
(0.833372 0.339218 5.00925e-20)
(0.834614 0.382894 -4.3578e-20)
(0.834612 0.433188 5.71158e-21)
(0.827196 0.486217 -5.0734e-20)
(0.790657 0.524011 -1.00551e-19)
(0.669169 0.495576 -2.65742e-20)
(0.359195 0.278008 -7.53808e-20)
(0.873928 0.239286 -3.76842e-20)
(0.874401 0.267984 3.87442e-20)
(0.879842 0.297485 4.33345e-20)
(0.885871 0.33376 4.4361e-20)
(0.892359 0.376615 4.52092e-20)