/*--------------------------------*- C++ -*----------------------------------*\
| =========                 |                                                 |
| \\      /  F ield         | OpenFOAM: The Open Source CFD Toolbox           |
|  \\    /   O peration     | Version:  4.1                                   |
|   \\  /    A nd           | Web:      www.OpenFOAM.org                      |
|    \\/     M anipulation  |                                                 |
\*---------------------------------------------------------------------------*/
FoamFile
{
    version     2.0;
    format      ascii;
    class       volScalarField;
    location    "8";
    object      p;
}
// * * * * * * * * * * * * * * * * * * * * * * * * * * * * * * * * * * * * * //

dimensions      [0 2 -2 0 0 0 0];

internalField   nonuniform List<scalar> 
2000
(
-0.409238
-0.397913
-0.386903
-0.376831
-0.368212
-0.360399
-0.352016
-0.343359
-0.331322
-0.322173
-0.432122
-0.41686
-0.403175
-0.390538
-0.378573
-0.366306
-0.352949
-0.338395
-0.321924
-0.306749
-0.460536
-0.440474
-0.423607
-0.407438
-0.390384
-0.371895
-0.352081
-0.331586
-0.310452
-0.290162
-0.494645
-0.468874
-0.448111
-0.426613
-0.402137
-0.375648
-0.348634
-0.322233
-0.296598
-0.273726
-0.533972
-0.501485
-0.475621
-0.446044
-0.411672
-0.375936
-0.341451
-0.309324
-0.279902
-0.253905
-0.576516
-0.536828
-0.503465
-0.462589
-0.416445
-0.370991
-0.329231
-0.291886
-0.258809
-0.229888
-0.618687
-0.572215
-0.527575
-0.472562
-0.413918
-0.359109
-0.310694
-0.26862
-0.232189
-0.200289
-0.655449
-0.603155
-0.543495
-0.472639
-0.401896
-0.33872
-0.284525
-0.23838
-0.198844
-0.164173
-0.681505
-0.623794
-0.54702
-0.460202
-0.3786
-0.308392
-0.249496
-0.200064
-0.15796
-0.121117
-0.692267
-0.628609
-0.53435
-0.43321
-0.342651
-0.266945
-0.204516
-0.152713
-0.108831
-0.0708236
-0.307663
-0.314319
-0.317649
-0.32073
-0.323972
-0.327066
-0.32975
-0.331832
-0.33329
-0.334376
-0.311432
-0.317515
-0.320629
-0.323656
-0.326899
-0.330021
-0.332736
-0.334789
-0.33607
-0.337169
-0.318322
-0.323266
-0.32595
-0.328762
-0.331875
-0.334913
-0.33756
-0.339501
-0.340379
-0.340966
-0.327173
-0.330596
-0.332544
-0.33484
-0.337538
-0.340228
-0.34256
-0.344263
-0.344627
-0.342692
-0.336836
-0.338555
-0.339397
-0.340763
-0.342656
-0.344673
-0.346397
-0.347464
-0.347081
-0.343721
-0.346532
-0.346518
-0.345862
-0.345854
-0.34653
-0.347585
-0.348499
-0.348819
-0.348203
-0.341427
-0.356084
-0.354287
-0.351913
-0.350095
-0.3492
-0.349069
-0.349053
-0.34838
-0.348667
-0.337563
-0.365988
-0.362351
-0.358004
-0.354151
-0.351489
-0.349979
-0.34907
-0.347099
-0.348186
-0.334657
-0.377287
-0.371585
-0.365131
-0.359211
-0.354774
-0.351805
-0.349524
-0.346374
-0.345969
-0.334211
-0.391285
-0.383093
-0.374442
-0.366496
-0.360195
-0.355302
-0.350573
-0.345701
-0.340444
-0.332368
-0.335233
-0.334943
-0.333675
-0.331231
-0.327386
-0.321914
-0.314576
-0.305127
-0.293367
-0.279184
-0.262556
-0.243322
-0.221389
-0.196724
-0.169377
-0.139616
-0.107867
-0.0739271
-0.0369629
-0.00283338
-0.339096
-0.339016
-0.337959
-0.335787
-0.332236
-0.327066
-0.320021
-0.310823
-0.29923
-0.285551
-0.269269
-0.250288
-0.228553
-0.204046
-0.176798
-0.146968
-0.114889
-0.0806238
-0.0433912
-0.00558931
-0.345196
-0.345174
-0.344499
-0.342823
-0.339806
-0.335205
-0.328743
-0.320172
-0.309408
-0.29602
-0.280068
-0.261393
-0.23989
-0.215521
-0.188296
-0.158278
-0.125611
-0.0905135
-0.052708
-0.0101464
-0.35263
-0.350443
-0.350797
-0.349631
-0.347238
-0.343276
-0.33742
-0.329525
-0.319407
-0.306672
-0.291215
-0.272879
-0.251559
-0.227199
-0.199787
-0.169342
-0.135915
-0.0994809
-0.060046
-0.0168343
-0.353723
-0.355471
-0.355278
-0.354487
-0.352694
-0.349126
-0.344318
-0.337273
-0.327661
-0.315431
-0.300357
-0.282252
-0.260988
-0.236486
-0.208714
-0.17766
-0.143391
-0.105751
-0.0652497
-0.0203091
-0.354164
-0.358098
-0.357633
-0.356748
-0.355754
-0.353553
-0.348706
-0.341827
-0.332606
-0.320705
-0.305853
-0.287849
-0.266537
-0.241825
-0.213672
-0.18206
-0.147116
-0.108635
-0.0673987
-0.021845
-0.352416
-0.358503
-0.357974
-0.356775
-0.355571
-0.353335
-0.349059
-0.342505
-0.333465
-0.321676
-0.30686
-0.288818
-0.267374
-0.242465
-0.214039
-0.182138
-0.146903
-0.108288
-0.0669834
-0.0222263
-0.348452
-0.355768
-0.354819
-0.352878
-0.35165
-0.349437
-0.345167
-0.338603
-0.329529
-0.317678
-0.302764
-0.284633
-0.263101
-0.238172
-0.209759
-0.178058
-0.143097
-0.105213
-0.0646765
-0.0218705
-0.346086
-0.35064
-0.347935
-0.34547
-0.343687
-0.340893
-0.336329
-0.329673
-0.320538
-0.308644
-0.293727
-0.2757
-0.254356
-0.229803
-0.201885
-0.171007
-0.136999
-0.100637
-0.06161
-0.0212915
-0.341832
-0.342175
-0.33859
-0.334994
-0.331478
-0.327427
-0.322228
-0.315262
-0.305982
-0.294132
-0.279439
-0.26186
-0.241141
-0.217478
-0.190641
-0.161216
-0.128872
-0.0947331
-0.0580401
-0.0206852
-0.320484
-0.325989
-0.324664
-0.320435
-0.315731
-0.31092
-0.305222
-0.297802
-0.288103
-0.275951
-0.261162
-0.243766
-0.223565
-0.200793
-0.175252
-0.147566
-0.11739
-0.0859411
-0.0523126
-0.0187232
-0.2986
-0.308757
-0.308217
-0.302326
-0.295885
-0.29005
-0.283849
-0.276141
-0.266262
-0.254095
-0.23955
-0.22273
-0.203474
-0.182036
-0.158214
-0.132649
-0.104966
-0.0764113
-0.0460403
-0.0162742
-0.274336
-0.287745
-0.287887
-0.281344
-0.274163
-0.267982
-0.261771
-0.254217
-0.244585
-0.232803
-0.218857
-0.202918
-0.18485
-0.164922
-0.142931
-0.119512
-0.0942866
-0.068488
-0.0411976
-0.0147392
-0.249588
-0.264397
-0.265624
-0.259636
-0.252642
-0.246581
-0.240587
-0.233369
-0.22418
-0.212967
-0.199767
-0.184795
-0.167948
-0.149504
-0.129267
-0.107858
-0.0849012
-0.0615846
-0.0369865
-0.0132633
-0.224911
-0.240224
-0.242847
-0.238102
-0.231824
-0.226146
-0.220487
-0.213698
-0.205064
-0.194535
-0.182166
-0.168204
-0.152575
-0.135568
-0.116993
-0.0974542
-0.0765771
-0.0554885
-0.033276
-0.0119649
-0.200844
-0.216396
-0.220397
-0.217109
-0.211806
-0.206699
-0.201486
-0.195214
-0.18722
-0.177456
-0.165975
-0.153045
-0.138613
-0.122983
-0.105971
-0.088161
-0.0691781
-0.0500925
-0.030009
-0.0108301
-0.178104
-0.193604
-0.198733
-0.196871
-0.19266
-0.188264
-0.183603
-0.177917
-0.170618
-0.16166
-0.151091
-0.139189
-0.125919
-0.111595
-0.0960387
-0.0798197
-0.0625589
-0.0452803
-0.0271013
-0.00982236
-0.156975
-0.172112
-0.178093
-0.177547
-0.174465
-0.17087
-0.166836
-0.161781
-0.155201
-0.147061
-0.137403
-0.126508
-0.114352
-0.101259
-0.087055
-0.0722978
-0.0566044
-0.0409611
-0.0244934
-0.0089232
-0.137431
-0.15202
-0.158639
-0.159283
-0.157309
-0.154554
-0.151188
-0.146784
-0.140924
-0.133593
-0.124827
-0.114904
-0.103807
-0.0918686
-0.0789165
-0.0655012
-0.051234
-0.0370728
-0.022147
-0.00811921
-0.119447
-0.133416
-0.140512
-0.142208
-0.141284
-0.139362
-0.136673
-0.13292
-0.127766
-0.12122
-0.113311
-0.104314
-0.0942143
-0.0833507
-0.071552
-0.0593639
-0.0463917
-0.0335721
-0.0200352
-0.00739958
-0.103069
-0.116383
-0.123819
-0.126429
-0.126473
-0.12535
-0.123322
-0.120202
-0.115726
-0.109926
-0.102827
-0.0947003
-0.0855288
-0.0756568
-0.0649131
-0.053841
-0.0420391
-0.0304294
-0.0181397
-0.00675667
-0.088336
-0.100973
-0.108633
-0.112029
-0.112947
-0.112571
-0.111171
-0.108651
-0.104811
-0.0997092
-0.0933638
-0.0860418
-0.077723
-0.0687559
-0.0589683
-0.0489025
-0.0381507
-0.0276246
-0.0164482
-0.00618526
-0.0752532
-0.087214
-0.0950098
-0.0990734
-0.100771
-0.101077
-0.100259
-0.0982934
-0.0950398
-0.0905767
-0.0849193
-0.0783294
-0.0707824
-0.0626299
-0.053698
-0.0445295
-0.0347103
-0.0251449
-0.0149531
-0.0056818
-0.0638124
-0.0751273
-0.0829936
-0.0876192
-0.0899994
-0.0909163
-0.0906233
-0.089158
-0.0864311
-0.0825408
-0.0774988
-0.0715621
-0.0647007
-0.057269
-0.049091
-0.0407105
-0.0317076
-0.0229821
-0.0136492
-0.00524395
-0.0540073
-0.0647308
-0.072623
-0.0777141
-0.0806806
-0.0821302
-0.0822978
-0.0812716
-0.0790056
-0.0756159
-0.0711111
-0.0657432
-0.0594773
-0.0526695
-0.0451418
-0.0374393
-0.0291369
-0.0211315
-0.0125336
-0.0048702
-0.0458329
-0.0560379
-0.063928
-0.0693962
-0.0728524
-0.0747524
-0.0753114
-0.0746579
-0.0727825
-0.0698167
-0.0657661
-0.0608786
-0.0551144
-0.0488309
-0.0418483
-0.0347129
-0.0269951
-0.0195904
-0.0116046
-0.00455961
-0.0392853
-0.0490609
-0.0569359
-0.0626997
-0.0665485
-0.0688127
-0.0696892
-0.069338
-0.0677792
-0.0651568
-0.0614741
-0.0569751
-0.0516159
-0.0457548
-0.0392105
-0.0325303
-0.0252813
-0.0183576
-0.0108615
-0.00431162
-0.0343573
-0.0438101
-0.0516721
-0.0576576
-0.0618017
-0.0643403
-0.0654559
-0.0653327
-0.0640131
-0.0616503
-0.0582459
-0.0540405
-0.048987
-0.0434443
-0.03723
-0.0308921
-0.0239955
-0.017433
-0.0103046
-0.00412583
-0.0310063
-0.0402621
-0.0481323
-0.0542775
-0.0586251
-0.0613494
-0.0626256
-0.0626548
-0.0614954
-0.0593067
-0.0560892
-0.0520805
-0.0472321
-0.0419018
-0.0359088
-0.0297985
-0.0231388
-0.0168154
-0.00993611
-0.00399958
-0.029211
-0.0383947
-0.0463007
-0.0525483
-0.0570119
-0.059837
-0.0611984
-0.061306
-0.0602296
-0.0581286
-0.0550077
-0.0510964
-0.0463544
-0.0411269
-0.0352505
-0.0292468
-0.0227159
-0.016498
-0.00976244
-0.00392173
-0.0399386
-0.0899644
-0.133689
-0.171199
-0.20272
-0.228871
-0.250674
-0.269573
-0.285481
-0.309575
-0.0140655
-0.0624936
-0.104997
-0.142082
-0.173671
-0.201102
-0.223478
-0.245312
-0.260732
-0.284656
0.00921123
-0.0370804
-0.0776814
-0.113743
-0.144472
-0.172473
-0.194651
-0.21766
-0.232847
-0.255157
0.0300416
-0.0141933
-0.0530505
-0.088189
-0.11804
-0.146041
-0.167939
-0.190738
-0.206872
-0.228525
0.0486396
0.00619625
-0.0312279
-0.0655231
-0.0946826
-0.122297
-0.144194
-0.166551
-0.183762
-0.204386
0.065224
0.0243941
-0.0117855
-0.0451734
-0.0737283
-0.100722
-0.12268
-0.14444
-0.161849
-0.181224
0.080045
0.0407155
0.005677
-0.0267333
-0.0546855
-0.0809188
-0.102699
-0.123673
-0.14077
-0.159277
0.0933216
0.0553901
0.0214134
-0.0100084
-0.0373343
-0.0627595
-0.0841599
-0.104411
-0.121193
-0.139054
0.10522
0.0685743
0.035584
0.00511082
-0.0215808
-0.046245
-0.0672244
-0.0869055
-0.103378
-0.120519
0.115866
0.0803847
0.0483056
0.0187133
-0.0073632
-0.0313488
-0.0519159
-0.0710713
-0.0871653
-0.103516
0.125353
0.0909154
0.0596715
0.030883
0.00538885
-0.0179801
-0.0381316
-0.056752
-0.0724498
-0.0880491
0.133751
0.100244
0.069758
0.0416985
0.0167497
-0.00604575
-0.0257923
-0.0438995
-0.0592453
-0.0741704
0.141113
0.108431
0.0786275
0.0512259
0.0267787
0.00450979
-0.0148686
-0.0325159
-0.0475616
-0.0618857
0.147477
0.115526
0.0863293
0.0595149
0.0355179
0.0137191
-0.00533875
-0.0225848
-0.0373721
-0.0511698
0.152875
0.121565
0.0929014
0.0666026
0.0429999
0.0216112
0.00282756
-0.014075
-0.028645
-0.0420003
0.157327
0.126577
0.0983737
0.072518
0.0492537
0.0282146
0.00966027
-0.00695926
-0.0213581
-0.0343619
0.160853
0.130585
0.102771
0.0772857
0.0543043
0.033553
0.0151819
-0.00121879
-0.0154965
-0.0282414
0.163459
0.133602
0.106111
0.0809312
0.0581802
0.0376543
0.0194191
0.00317111
-0.011038
-0.0236204
0.165143
0.135612
0.108395
0.0834675
0.0609057
0.0405519
0.0224136
0.00626048
-0.00792591
-0.0204412
0.165817
0.136524
0.109498
0.0847563
0.0623394
0.0421124
0.0240481
0.00795889
-0.00621582
-0.0187155
0.707769
0.710435
0.702828
0.685604
0.659765
0.624396
0.575341
0.505624
0.412883
0.34543
0.63624
0.631947
0.612352
0.584916
0.550519
0.505892
0.445459
0.361913
0.253171
0.17321
0.560869
0.54759
0.518148
0.482287
0.439796
0.385897
0.314416
0.218065
0.0948145
0.00484211
0.474919
0.454983
0.419735
0.378125
0.328862
0.266552
0.185147
0.0778837
-0.0580606
-0.153932
0.384716
0.35956
0.320342
0.274447
0.21962
0.150148
0.0602622
-0.0552884
-0.201369
-0.296167
0.295888
0.265965
0.22354
0.174172
0.114817
0.039592
-0.0572705
-0.179507
-0.325753
-0.41964
0.210866
0.176712
0.131895
0.079958
0.0172782
-0.0619802
-0.163281
-0.288841
-0.430408
-0.521647
0.130899
0.0933726
0.0472247
-0.00617187
-0.0707377
-0.152231
-0.254954
-0.37989
-0.514268
-0.600026
0.0567578
0.0171501
-0.0288429
-0.0826228
-0.148134
-0.229604
-0.330844
-0.451437
-0.575511
-0.653937
-0.0121752
-0.0505904
-0.0956283
-0.148904
-0.213619
-0.293126
-0.390291
-0.502893
-0.613349
-0.684037
1.15735
1.17728
1.20003
1.22564
1.25408
1.28503
1.3176
1.34924
1.37657
1.40655
1.15129
1.17
1.1918
1.21643
1.24363
1.27305
1.30375
1.33309
1.35763
1.38547
1.13885
1.15514
1.17509
1.19777
1.22255
1.24894
1.2759
1.30063
1.31981
1.34319
1.11946
1.13223
1.14948
1.16932
1.19053
1.21248
1.23397
1.2519
1.26322
1.27999
1.09242
1.10066
1.1145
1.1307
1.14731
1.16352
1.1779
1.18702
1.18806
1.19633
1.05695
1.05973
1.0695
1.08138
1.09252
1.10187
1.10774
1.10627
1.09484
1.09298
1.01259
1.00925
1.01455
1.02155
1.02639
1.0278
1.0239
1.01029
0.984446
0.971174
0.95757
0.947579
0.948764
0.950959
0.949072
0.94183
0.927221
0.900295
0.858509
0.832663
0.892274
0.875978
0.873808
0.870668
0.861192
0.844663
0.818789
0.777872
0.71928
0.679782
0.808635
0.794143
0.791552
0.782544
0.764677
0.73837
0.700772
0.645391
0.569588
0.515942
1.00138
1.00408
1.00743
1.01132
1.01539
1.01957
1.02396
1.02866
1.03376
1.03933
1.04546
1.05218
1.05956
1.06772
1.07678
1.08685
1.09808
1.11058
1.12452
1.14002
1.00134
1.00404
1.00735
1.01113
1.01508
1.01915
1.02342
1.02801
1.03298
1.03841
1.04436
1.05088
1.05804
1.06595
1.07471
1.08443
1.09523
1.10723
1.12055
1.13527
1.00132
1.00395
1.00709
1.01065
1.01439
1.01825
1.02231
1.02666
1.03137
1.03651
1.04211
1.04822
1.05492
1.06231
1.07045
1.07945
1.08938
1.10034
1.11238
1.12547
1.00127
1.00375
1.00662
1.00987
1.01329
1.01683
1.02055
1.02453
1.02884
1.03353
1.03857
1.04405
1.05005
1.05661
1.06379
1.07164
1.08021
1.08952
1.09953
1.11004
1.00117
1.00343
1.00593
1.00875
1.01174
1.01484
1.01809
1.02156
1.0253
1.02932
1.0336
1.03821
1.04322
1.04863
1.05445
1.06068
1.06731
1.07426
1.0814
1.08824
1.00102
1.00296
1.00499
1.00725
1.00966
1.01218
1.01483
1.01763
1.02066
1.02375
1.02702
1.03052
1.03423
1.03811
1.04213
1.0462
1.05026
1.05404
1.05737
1.05927
1.00077
1.00228
1.00375
1.00532
1.00703
1.00883
1.01072
1.01275
1.01471
1.01669
1.01876
1.02085
1.02293
1.02487
1.02659
1.02787
1.0286
1.02826
1.02673
1.02237
1.00041
1.00133
1.00212
1.0029
1.0038
1.00479
1.00579
1.00664
1.00743
1.00816
1.00877
1.00916
1.00924
1.0088
1.00773
1.00561
1.0023
0.996822
0.989257
0.976711
0.999961
1.00005
1.00002
0.999949
0.99991
0.999854
0.999697
0.999373
0.998861
0.998087
0.996969
0.995324
0.99304
0.989762
0.985402
0.979195
0.971311
0.959827
0.94583
0.922985
0.999585
0.99857
0.997543
0.996561
0.99552
0.994331
0.992934
0.991251
0.98922
0.986703
0.983601
0.979622
0.974646
0.968042
0.95979
0.948358
0.934347
0.913655
0.889746
0.850797
0.999006
0.997084
0.995198
0.993251
0.991115
0.988692
0.98593
0.982732
0.979008
0.974562
0.969259
0.962716
0.95477
0.944633
0.932206
0.915709
0.895401
0.866567
0.829967
0.77111
0.998573
0.995689
0.992872
0.989941
0.986707
0.983072
0.978994
0.974365
0.96908
0.962901
0.955684
0.946992
0.93667
0.923863
0.908487
0.888776
0.864908
0.833313
0.795226
0.746075
0.998148
0.994306
0.990557
0.986622
0.982267
0.977409
0.972025
0.965998
0.959214
0.951408
0.942435
0.931842
0.919487
0.904543
0.886953
0.865193
0.839556
0.807573
0.770608
0.725185
0.997605
0.992964
0.988393
0.983422
0.977881
0.971755
0.965051
0.957639
0.949391
0.940026
0.929401
0.917069
0.902912
0.886156
0.866808
0.843555
0.816854
0.784591
0.74829
0.704325
0.997073
0.991705
0.986408
0.980399
0.973621
0.966189
0.958158
0.949386
0.939727
0.928888
0.916736
0.902836
0.887107
0.86883
0.848094
0.823707
0.796266
0.763772
0.727999
0.685448
0.996545
0.9905
0.98459
0.97759
0.969553
0.960788
0.951435
0.941343
0.930344
0.91813
0.904581
0.889286
0.872201
0.852659
0.830819
0.805581
0.777635
0.745124
0.709947
0.668866
0.995984
0.989349
0.982987
0.975062
0.965754
0.955633
0.944964
0.933599
0.921338
0.907854
0.893038
0.876506
0.858252
0.837663
0.814941
0.789085
0.760825
0.728487
0.693924
0.654196
0.995394
0.988276
0.981656
0.972889
0.962295
0.950787
0.938811
0.926227
0.912787
0.898138
0.882177
0.864554
0.845294
0.82384
0.800416
0.774127
0.745694
0.713635
0.679659
0.641153
0.994775
0.987299
0.980641
0.971121
0.959221
0.946293
0.933022
0.91928
0.904752
0.889043
0.872052
0.853472
0.833346
0.811181
0.787201
0.76062
0.732109
0.700386
0.666964
0.62958
0.994131
0.986438
0.979982
0.969793
0.956551
0.942166
0.927622
0.912797
0.897275
0.880612
0.862702
0.843285
0.822419
0.799672
0.775254
0.748484
0.719965
0.688604
0.65571
0.61936
0.993476
0.985748
0.979734
0.968915
0.95426
0.938386
0.922616
0.906802
0.890389
0.872873
0.854148
0.834006
0.812512
0.789295
0.764533
0.737653
0.709172
0.678186
0.64579
0.610387
0.992836
0.985354
0.979982
0.968456
0.952264
0.934896
0.917994
0.901309
0.884112
0.865842
0.846403
0.825642
0.803622
0.780027
0.754999
0.728068
0.699659
0.669045
0.637112
0.602569
0.992224
0.985419
0.980761
0.968274
0.950393
0.931602
0.913738
0.896328
0.878448
0.85952
0.839471
0.818194
0.795742
0.771848
0.746619
0.719679
0.691363
0.661107
0.629598
0.595826
0.991611
0.985931
0.981756
0.967922
0.948336
0.928391
0.90983
0.891845
0.873381
0.853899
0.833352
0.811663
0.788863
0.764739
0.739361
0.712442
0.684231
0.65431
0.623182
0.590091
0.991288
0.986538
0.982046
0.966626
0.945786
0.92527
0.90631
0.88785
0.868888
0.848975
0.828057
0.806056
0.782984
0.758684
0.733201
0.706323
0.67822
0.648601
0.617808
0.585307
0.990094
0.9843
0.978683
0.962743
0.942421
0.922374
0.903256
0.884321
0.864939
0.844743
0.823589
0.801372
0.778096
0.753668
0.728114
0.701289
0.67329
0.643936
0.61343
0.581425
0.991003
0.977665
0.967474
0.954369
0.938114
0.919932
0.900786
0.881331
0.861615
0.841272
0.819992
0.797631
0.774206
0.749688
0.72409
0.697319
0.669414
0.640279
0.61001
0.578404
0.995246
0.971032
0.951644
0.943035
0.93338
0.917839
0.898819
0.879006
0.859092
0.838666
0.817296
0.794832
0.771305
0.74673
0.721106
0.694381
0.666553
0.637593
0.607514
0.576214
0.998571
0.977712
0.956283
0.943481
0.931435
0.915661
0.896976
0.877403
0.857508
0.836981
0.81549
0.792939
0.769353
0.744752
0.719117
0.692429
0.664659
0.635825
0.605894
0.574832
0.988916
0.985863
0.981248
0.962159
0.938014
0.915798
0.896053
0.876879
0.857103
0.83639
0.814705
0.792051
0.768415
0.743791
0.718145
0.691469
0.663725
0.634956
0.605112
0.574219
0.700678
0.625523
0.55275
0.473572
0.389414
0.306459
0.227249
0.152039
0.0813959
0.016949
0.691338
0.613692
0.537558
0.463299
0.385516
0.307878
0.234007
0.164135
0.0990217
0.0399396
0.675293
0.601401
0.525076
0.454925
0.383907
0.311735
0.242423
0.177169
0.1165
0.0605226
0.658221
0.589942
0.515456
0.447756
0.382092
0.315164
0.249998
0.188568
0.131514
0.0786348
0.642153
0.579002
0.507617
0.441997
0.380473
0.318398
0.257163
0.199007
0.145042
0.094837
0.62748
0.568667
0.500999
0.437598
0.379239
0.321329
0.263775
0.208555
0.157212
0.109338
0.61421
0.559067
0.495241
0.434275
0.378461
0.323991
0.269787
0.217264
0.168188
0.12234
0.602303
0.550302
0.490172
0.431769
0.378136
0.326462
0.275205
0.225162
0.178093
0.134022
0.591697
0.542401
0.485694
0.429858
0.378186
0.328795
0.280063
0.232274
0.187014
0.144518
0.582312
0.535343
0.481734
0.428377
0.378513
0.331015
0.284409
0.238632
0.19501
0.153925
0.574062
0.529089
0.47824
0.427209
0.37902
0.333117
0.288286
0.24427
0.202128
0.162312
0.566867
0.523593
0.475166
0.426266
0.37962
0.335078
0.291722
0.249224
0.208404
0.16973
0.560654
0.518807
0.472472
0.425483
0.380237
0.336867
0.294733
0.253522
0.213868
0.176217
0.55536
0.514689
0.470127
0.424809
0.380811
0.338446
0.29732
0.257189
0.218547
0.181804
0.550933
0.511203
0.468103
0.424205
0.381288
0.339773
0.299473
0.260236
0.22246
0.186515
0.547327
0.508318
0.466382
0.423644
0.381627
0.340812
0.301177
0.262666
0.22562
0.190365
0.544501
0.506001
0.464939
0.4231
0.381795
0.341535
0.302422
0.264487
0.228032
0.193373
0.542423
0.504218
0.463737
0.422525
0.381738
0.341898
0.30319
0.265706
0.229714
0.195478
0.541091
0.50298
0.462765
0.421862
0.381359
0.341789
0.303377
0.266249
0.230661
0.196873
0.540554
0.502455
0.462253
0.421335
0.380827
0.341306
0.303015
0.266078
0.230715
0.197178
)
;

boundaryField
{
    bottom
    {
        type            symmetryPlane;
    }
    right
    {
        type            fixedValue;
        value           uniform 0;
    }
    top
    {
        type            symmetryPlane;
    }
    left
    {
        type            fixedValue;
        value           uniform 1;
    }
    cylinder
    {
        type            zeroGradient;
    }
    defaultFaces
    {
        type            empty;
    }
}


// ************************************************************************* //
