/*--------------------------------*- C++ -*----------------------------------*\
| =========                 |                                                 |
| \\      /  F ield         | OpenFOAM: The Open Source CFD Toolbox           |
|  \\    /   O peration     | Version:  4.1                                   |
|   \\  /    A nd           | Web:      www.OpenFOAM.org                      |
|    \\/     M anipulation  |                                                 |
\*---------------------------------------------------------------------------*/
FoamFile
{
    version     2.0;
    format      ascii;
    class       surfaceScalarField;
    location    "8";
    object      phi;
}
// * * * * * * * * * * * * * * * * * * * * * * * * * * * * * * * * * * * * * //

dimensions      [0 3 -1 0 0 0 0];

internalField   nonuniform List<scalar> 
3890
(
0.000293755
0.00255694
-0.0028507
0.00243642
0.000811689
-0.00295436
0.00731992
-0.00560496
0.000721458
0.0153778
-0.0152941
0.00723623
0.0262878
-0.0266148
0.0157048
0.0390831
-0.037903
0.0251078
0.0525455
-0.0479134
0.0344511
0.0656978
-0.0561182
0.0429659
0.0776898
-0.0623924
0.0504004
-0.066491
0.0566465
0.0875343
0.000592036
0.00196491
0.00382142
-0.00241769
0.0106203
-0.0124038
0.0208993
-0.0255732
0.0334551
-0.0391707
0.0466651
-0.051113
0.059194
-0.0604423
0.0702225
-0.0671468
0.0793374
-0.0715074
-0.0743035
0.0871499
0.00102202
0.000942885
0.00561593
-0.0070116
0.0144023
-0.0211902
0.0262483
-0.0374191
0.0390596
-0.051982
0.0510573
-0.0631107
0.0612965
-0.0706815
0.0695472
-0.0753975
0.0761744
-0.0781346
-0.0798105
0.0816814
0.00157975
-0.00063686
0.00770217
-0.013134
0.0180871
-0.0315751
0.0303181
-0.0496501
0.0419564
-0.0636203
0.0517079
-0.0728622
0.059348
-0.0783216
0.0652699
-0.0813194
0.0700629
-0.0829276
-0.0839284
0.0741808
0.00225152
-0.00288838
0.00983527
-0.0207178
0.0209655
-0.0427053
0.0323399
-0.0610245
0.0419341
-0.0732145
0.0492645
-0.0801926
0.0547239
-0.083781
0.0589538
-0.0855493
0.0625267
-0.0865006
-0.0872503
0.0658487
0.00300451
-0.00589289
0.0116637
-0.029377
0.0225057
-0.0535473
0.0321936
-0.0707124
0.0395448
-0.0805657
0.0447743
-0.0854221
0.0485731
-0.0875798
0.051593
-0.0885692
0.0542924
-0.0891999
-0.0898044
0.0568464
0.00375634
-0.00964923
0.0128491
-0.0384697
0.022567
-0.0632652
0.0302497
-0.0783951
0.0355429
-0.085859
0.0390797
-0.0889588
0.0416175
-0.0901176
0.0437051
-0.0906568
0.0456354
-0.0911302
-0.0916937
0.0475248
0.00438431
-0.0140335
0.0131952
-0.0472806
0.0213236
-0.0713937
0.0270239
-0.0840954
0.0305596
-0.0893947
0.0327487
-0.0911479
0.0342822
-0.0916512
0.035565
-0.0919396
0.0367784
-0.0923436
-0.0928808
0.0379655
0.00476926
-0.0188028
0.012699
-0.0552104
0.0190833
-0.0777779
0.0229829
-0.087995
0.0250534
-0.0914651
0.0261407
-0.0922352
0.0268122
-0.0923227
0.0273459
-0.0924733
0.0278335
-0.0928312
-0.0933437
0.0282964
0.004843
-0.0236458
0.0115311
-0.0618984
0.0161758
-0.0824226
0.0184944
-0.0903136
0.0193364
-0.0923072
0.0194795
-0.0923782
0.01936
-0.0922033
0.0191575
-0.0922707
0.0189202
-0.0925939
0.0186492
-0.0930728
-0.000973238
0.000973238
-0.00283275
0.00185951
-0.00510494
0.00227219
-0.00755816
0.00245322
-0.0100755
0.00251732
-0.0125997
0.00252422
-0.0151064
0.00250668
-0.0175912
0.00248485
-0.0200697
0.00247849
0.00251804
-0.0225878
-0.000854128
0.00182737
-0.00250375
0.00350914
-0.00451792
0.00428636
-0.00666304
0.00459833
-0.00881017
0.00466445
-0.0108855
0.00459954
-0.012846
0.00446723
-0.0146705
0.0043093
-0.0163546
0.0041626
0.00410516
-0.0179417
-0.000645993
0.00247336
-0.00192873
0.00479187
-0.00347854
0.00583617
-0.00507034
0.00619014
-0.00656175
0.00615586
-0.00785496
0.00589275
-0.00887657
0.00548885
-0.00957585
0.00500857
-0.00992063
0.00450738
0.00403889
-0.00985436
-0.000405169
0.00287853
-0.00123855
0.00562525
-0.00220446
0.00680207
-0.00309408
0.00707976
-0.00375792
0.00681969
-0.0040795
0.00621434
-0.00395692
0.00536626
-0.00328825
0.0043399
-0.00199619
0.00321532
0.00217782
-0.000135121
-0.0001886
0.00306713
-0.000575395
0.00601205
-0.000926009
0.00715268
-0.00104979
0.00720355
-0.000792459
0.00656236
-2.39237e-05
0.0054458
0.00138443
0.00395791
0.00354989
0.00217444
0.00657551
0.000189713
-0.0020349
0.0107882
-3.85035e-05
0.00310563
-4.06572e-05
0.0060142
0.000189188
0.00692284
0.00085312
0.00653962
0.00212417
0.00529131
0.00416214
0.00340783
0.00711498
0.00100507
0.0111281
-0.00183866
0.0162005
-0.00488273
-0.00885733
0.023023
3.13781e-05
0.00307425
0.000320088
0.00572549
0.00110296
0.00613996
0.00261036
0.00503222
0.00507254
0.00282913
0.00870035
-0.000219986
0.0136697
-0.00396423
0.0201045
-0.00827351
0.0277722
-0.0125504
-0.018642
0.0375568
4.52014e-05
0.00302905
0.000589424
0.00518127
0.00196693
0.00476245
0.00450011
0.00249905
0.00850047
-0.00117124
0.0142184
-0.00593791
0.0217512
-0.0114971
0.0310464
-0.0175687
0.0417211
-0.0232251
-0.0310176
0.0540967
5.56578e-05
0.00297339
0.000917804
0.00431912
0.00308738
0.00259287
0.00701633
-0.00142989
0.0130563
-0.00721126
0.02133
-0.0142116
0.0316751
-0.0218421
0.0436234
-0.0295171
0.0568603
-0.036462
-0.0444152
0.0702579
0.00012269
0.00148745
0.00480179
0.0106081
0.0191017
0.0299979
0.0426068
0.0560557
0.0699941
0.0822254
-0.0240205
0.0014327
-0.0253386
0.00131812
-0.026515
0.00117646
-0.027539
0.00102393
-0.0283979
0.000858971
-0.0290784
0.000680502
-0.029566
0.000487518
-0.0298449
0.000278898
-0.0298916
4.6779e-05
-0.029721
-0.000170622
-0.0293149
-0.000406099
-0.028654
-0.000660928
-0.0277195
-0.000934508
-0.0264906
-0.00122887
-0.024942
-0.00154865
-0.0230418
-0.00190012
-0.0207614
-0.00228044
-0.0181011
-0.00266032
-0.0150889
-0.00301219
-0.00339104
-0.0190732
0.00256416
-0.0201147
0.00235962
-0.0210332
0.002095
-0.0218174
0.00180811
-0.0224532
0.0014948
-0.022927
0.00115426
-0.0232243
0.000784816
-0.02333
0.000384578
-0.0232289
-5.42952e-05
-0.022931
-0.000468475
-0.022412
-0.00092511
-0.0216608
-0.00141217
-0.0206664
-0.00192887
-0.0194183
-0.00247701
-0.0179056
-0.00306134
-0.0161158
-0.00368998
-0.0140295
-0.00436668
-0.0116257
-0.00506408
-0.00892532
-0.00571261
-0.00629823
-0.0105035
0.00321328
-0.0110197
0.00287584
-0.0114766
0.00255192
-0.0118321
0.00216362
-0.0120702
0.00173294
-0.0121777
0.00126172
-0.0121386
0.000745695
-0.0119249
0.000170854
-0.0115789
-0.000400294
-0.0110429
-0.00100447
-0.0103168
-0.00165118
-0.00939395
-0.00233501
-0.00826999
-0.00305282
-0.00694413
-0.00380286
-0.00541993
-0.00458554
-0.00370623
-0.00540368
-0.00181285
-0.00626005
0.000275048
-0.00715198
0.00258056
-0.00801813
-0.008734
0.000151061
0.00292709
0.000201147
0.00282575
0.000321958
0.00243111
0.000512421
0.00197316
0.000781146
0.00146421
0.00114494
0.000897929
0.00162526
0.00026538
0.00219147
-0.000395366
0.00288795
-0.00109676
0.003733
-0.00184953
0.00473044
-0.00264862
0.00588392
-0.00348849
0.00719429
-0.00436319
0.00865731
-0.00526589
0.0102625
-0.0061907
0.0119907
-0.00713188
0.0138119
-0.00808128
0.0157026
-0.00904269
0.0176323
-0.0099478
-0.0109051
0.0115275
0.00218778
0.0122764
0.00207691
0.0129958
0.00171173
0.0137652
0.00120375
0.0145856
0.000643734
0.0154907
-7.10747e-06
0.0164145
-0.000658485
0.0174229
-0.00140369
0.0185335
-0.00220742
0.0197508
-0.00306678
0.0210791
-0.00397694
0.0225195
-0.00492887
0.0240699
-0.0059136
0.0257221
-0.00691811
0.0274629
-0.00793156
0.0292708
-0.00893975
0.0311135
-0.00992399
0.0329597
-0.0108889
0.034753
-0.0117411
-0.0127205
0.02424
0.000970763
0.0254456
0.000871283
0.0266609
0.00049647
0.0279305
-6.58959e-05
0.0292239
-0.00064967
0.030522
-0.00130523
0.0318953
-0.00203175
0.0333276
-0.00283596
0.034829
-0.00370882
0.0364036
-0.00464139
0.0380528
-0.00562612
0.0397729
-0.00664899
0.0415583
-0.00769899
0.043395
-0.00875487
0.0452684
-0.00980495
0.0471523
-0.0108236
0.0490201
-0.0117918
0.0508363
-0.0127052
0.0525568
-0.0134615
-0.0143259
0.0389418
-0.000414267
0.040358
-0.000544886
0.0418158
-0.000961352
0.0433169
-0.00156691
0.0448753
-0.00220814
0.0464793
-0.00290922
0.048141
-0.00369346
0.0498592
-0.0045541
0.051632
-0.00548161
0.0534553
-0.00646469
0.0553241
-0.00749497
0.0572271
-0.00855194
0.0591533
-0.00962527
0.0610821
-0.0106836
0.0629983
-0.0117211
0.06487
-0.0126953
0.0666815
-0.0136033
0.0683876
-0.0144113
0.0699876
-0.0150615
-0.0157325
0.0554211
-0.00173862
0.0567523
-0.00187609
0.0582012
-0.00241029
0.0597248
-0.00309049
0.0613234
-0.00380673
0.0630023
-0.00458812
0.0647524
-0.00544359
0.066559
-0.00636066
0.0684104
-0.00733302
0.0702936
-0.00834789
0.0721955
-0.00939684
0.0740972
-0.0104537
0.0759832
-0.0115113
0.077829
-0.0125294
0.0796201
-0.0135123
0.0813242
-0.0143994
0.0829362
-0.0152153
0.0844076
-0.0158827
0.0857757
-0.0164296
-0.0168911
0.071263
-0.0027437
0.0725249
-0.00313794
0.0739191
-0.00380456
0.0753758
-0.00454717
0.0769181
-0.00534903
0.0785397
-0.00620966
0.0802162
-0.0071201
0.0819276
-0.00807203
0.0836589
-0.00906439
0.0853944
-0.0100834
0.0871184
-0.0111208
0.0888129
-0.0121481
0.0904623
-0.0131607
0.0920474
-0.0141145
0.0935557
-0.0150206
0.0949656
-0.0158092
0.0962756
-0.0165253
0.0974514
-0.0170584
0.0985311
-0.0175093
-0.0177922
0.0835767
-0.00409498
0.0850393
-0.00460058
0.0864549
-0.00522015
0.087873
-0.00596527
0.08931
-0.00678596
0.0907637
-0.00766338
0.0922285
-0.00858494
0.0936969
-0.00954042
0.0951603
-0.0105278
0.096609
-0.0115321
0.0980336
-0.0125454
0.0994238
-0.0135384
0.100769
-0.014506
0.10206
-0.0154058
0.103288
-0.0162477
0.104446
-0.0169673
0.105527
-0.0176071
0.106531
-0.0180623
0.107457
-0.0184354
-0.0185584
0.11271
-0.00333102
-0.113474
0.11225
-0.0041409
0.111942
-0.00491189
0.111725
-0.00574896
0.111581
-0.00664178
0.111481
-0.00756361
0.111397
-0.00850029
0.1113
-0.0094439
0.111168
-0.0103952
0.110978
-0.0113419
0.110712
-0.0122796
0.110357
-0.0131834
0.109902
-0.0140511
0.109343
-0.0148466
0.108675
-0.0155804
0.107907
-0.0161987
0.107037
-0.0167376
0.106088
-0.0171129
0.105056
-0.0174035
-0.0174496
0.118841
-0.0029654
-0.119207
0.118536
-0.0038355
0.118295
-0.00467118
0.118067
-0.00552104
0.117827
-0.00640186
0.117565
-0.00730122
0.117271
-0.00820701
0.116937
-0.009109
0.116547
-0.0100059
0.116092
-0.0108869
0.115561
-0.0117487
0.114949
-0.0125709
0.11425
-0.0133521
0.113465
-0.0140622
0.112595
-0.0147103
0.111649
-0.0152523
0.11063
-0.0157185
0.109554
-0.0160376
0.108431
-0.0162799
-0.0163375
0.122269
-0.00260139
-0.122633
0.121975
-0.00354155
0.121723
-0.00441897
0.121471
-0.00526973
0.121192
-0.00612226
0.120871
-0.0069804
0.120503
-0.00783851
0.12008
-0.0086864
0.119595
-0.00952126
0.119042
-0.0103333
0.118414
-0.0111205
0.117709
-0.0118661
0.116926
-0.0125691
0.116069
-0.0132051
0.115139
-0.0137808
0.114149
-0.0142616
0.1131
-0.01467
0.112016
-0.0149534
0.110901
-0.0151651
-0.0152197
0.124318
-0.00234368
-0.124576
0.124063
-0.00328596
0.123813
-0.00416918
0.12355
-0.00500677
0.123253
-0.00582501
0.122908
-0.00663597
0.12251
-0.00744055
0.122055
-0.00823068
0.121536
-0.00900298
0.120952
-0.00974844
0.120297
-0.0104657
0.119571
-0.0111409
0.118776
-0.0117739
0.117916
-0.0123446
0.116993
-0.0128583
0.116019
-0.0132875
0.114998
-0.0136493
0.11395
-0.0139046
0.112875
-0.0140908
-0.0141489
0.125751
-0.00217565
-0.125919
0.125541
-0.00307583
0.125309
-0.00393699
0.125051
-0.00474837
0.124753
-0.00552718
0.124405
-0.0062881
0.124001
-0.00703706
0.123539
-0.00776876
0.123016
-0.00848006
0.122431
-0.00916245
0.12178
-0.00981495
0.121065
-0.0104261
0.120287
-0.0109963
0.119452
-0.0115089
0.118562
-0.0119684
0.117627
-0.0123526
0.116653
-0.012675
0.115653
-0.0129053
0.114634
-0.013071
-0.0131313
0.127053
-0.00205419
-0.127174
0.126877
-0.00290007
0.126662
-0.00372184
0.126409
-0.00449559
0.126112
-0.00523047
0.125765
-0.00594042
0.125362
-0.00663404
0.124901
-0.00730841
0.124382
-0.00796111
0.123804
-0.0085842
0.123166
-0.00917696
0.12247
-0.0097296
0.121716
-0.0102431
0.120911
-0.0107034
0.120057
-0.0111149
0.119164
-0.0114588
0.118235
-0.0117466
0.117284
-0.0119539
0.116315
-0.0121021
-0.0121611
0.128435
-0.00195883
-0.128531
0.12828
-0.00274459
0.128073
-0.00351527
0.127821
-0.00424273
0.12752
-0.00493019
0.127169
-0.00558911
0.126764
-0.00622866
0.126303
-0.00684759
0.125786
-0.00744437
0.125214
-0.0080117
0.124586
-0.00854917
0.123904
-0.0090481
0.123171
-0.00951014
0.122391
-0.00992301
0.121567
-0.0102913
0.120707
-0.0105988
0.119816
-0.0108557
0.118904
-0.0110416
0.117976
-0.011174
-0.0112293
0.129938
-0.0018761
-0.130021
0.129789
-0.00259603
0.129583
-0.0033086
0.129324
-0.00398433
0.129016
-0.00462187
0.128657
-0.00522969
0.128244
-0.00581647
0.127779
-0.00638188
0.12726
-0.00692525
0.126688
-0.00743996
0.126064
-0.00792589
0.125392
-0.00837525
0.124672
-0.00879016
0.123908
-0.00915974
0.123106
-0.00948891
0.12227
-0.00976314
0.121407
-0.00999217
0.120523
-0.0101579
0.119625
-0.010276
-0.0103262
0.131521
-0.00179211
-0.131605
0.13137
-0.00244458
0.131157
-0.00309598
0.13089
-0.00371684
0.130571
-0.00430262
0.1302
-0.00485913
0.129778
-0.00539411
0.129304
-0.00590767
0.128778
-0.00639977
0.128203
-0.0068645
0.127579
-0.00730201
0.126909
-0.0077052
0.126195
-0.00807654
0.125442
-0.00840628
0.124652
-0.00869958
0.123832
-0.00894326
0.122987
-0.00914683
0.122123
-0.00929377
0.121246
-0.00939862
-0.00944313
0.13313
-0.00169797
-0.133224
0.132969
-0.00228444
0.132747
-0.00287385
0.132468
-0.00343807
0.132137
-0.00397079
0.131753
-0.00447575
0.131319
-0.00495963
0.130834
-0.00542269
0.130299
-0.00586534
0.129717
-0.00628226
0.129089
-0.00667387
0.128417
-0.00703365
0.127705
-0.00736432
0.126956
-0.00765705
0.126174
-0.00791717
0.125363
-0.0081326
0.124529
-0.00831268
0.123677
-0.00844205
0.122813
-0.00853471
-0.00857329
0.134711
-0.00159022
-0.134818
0.134539
-0.00211238
0.134305
-0.00263987
0.134013
-0.00314662
0.133668
-0.00362552
0.133271
-0.00407881
0.132824
-0.00451217
0.132327
-0.00492586
0.131782
-0.00532054
0.131191
-0.00569145
0.130556
-0.00603917
0.129881
-0.00635779
0.129166
-0.00665013
0.128417
-0.00690818
0.127638
-0.0071373
0.126831
-0.00732641
0.126003
-0.00748464
0.125159
-0.00759761
0.124303
-0.00767891
-0.00771172
0.136223
-0.00146743
-0.136346
0.136037
-0.00192662
0.13579
-0.00239267
0.135485
-0.00284176
0.135126
-0.00326655
0.134716
-0.00366823
0.134255
-0.00405161
0.133746
-0.00441689
0.13319
-0.00476482
0.13259
-0.00509119
0.131948
-0.00539669
0.131266
-0.00567597
0.130548
-0.00593186
0.129797
-0.00615713
0.129016
-0.00635703
0.128211
-0.00652145
0.127386
-0.00665918
0.126545
-0.0067568
0.125694
-0.00682745
-0.00685486
0.137633
-0.00132877
-0.137772
0.137433
-0.00172641
0.137172
-0.00213175
0.136854
-0.00252338
0.136482
-0.00289412
0.136058
-0.00324442
0.135584
-0.00357835
0.135064
-0.00389603
0.134497
-0.00419826
0.133887
-0.00448131
0.133236
-0.00474594
0.132548
-0.00498737
0.131824
-0.00520833
0.13107
-0.00540238
0.130287
-0.00557451
0.129481
-0.00571559
0.128656
-0.00583393
0.127816
-0.00591716
0.126967
-0.00597775
-0.00600021
0.138916
-0.0011742
-0.139071
0.138702
-0.0015119
0.138427
-0.00185741
0.138096
-0.00219198
0.137711
-0.0025089
0.137274
-0.00280815
0.136789
-0.00309314
0.136257
-0.00336395
0.13568
-0.00362135
0.135061
-0.0038621
0.134402
-0.00408696
0.133706
-0.00429176
0.132977
-0.00447903
0.132218
-0.00464312
0.131432
-0.00478865
0.130624
-0.00490754
0.129797
-0.00500738
0.128957
-0.00507706
0.128108
-0.0051281
-0.00514609
0.140051
-0.00100461
-0.140221
0.139823
-0.00128393
0.139536
-0.0015705
0.139193
-0.00184848
0.138796
-0.00211187
0.138348
-0.00236045
0.137852
-0.00259699
0.13731
-0.00282156
0.136723
-0.00303486
0.136095
-0.00323416
0.135428
-0.00342015
0.134726
-0.00358932
0.133991
-0.00374388
0.133227
-0.00387907
0.132437
-0.00399894
0.131626
-0.00409657
0.130797
-0.00417866
0.129956
-0.00423552
0.129105
-0.00427741
-0.00429144
0.141024
-0.000821464
-0.141207
0.140784
-0.00104376
0.140486
-0.00127223
0.140131
-0.00149406
0.139724
-0.00170426
0.139266
-0.00190252
0.13876
-0.00209106
0.138208
-0.00226995
0.137613
-0.00243976
0.136977
-0.00259832
0.136303
-0.00274617
0.135594
-0.00288052
0.134854
-0.00300317
0.134085
-0.00311031
0.133291
-0.00320525
0.132477
-0.00328241
0.131646
-0.00334734
0.130802
-0.00339201
0.12995
-0.0034251
-0.00343561
0.141823
-0.000626524
-0.142018
0.141572
-0.000792944
0.141264
-0.00096401
0.1409
-0.0011301
0.140483
-0.0012874
0.140016
-0.00143571
0.139502
-0.00157665
0.138942
-0.00171036
0.138339
-0.00183718
0.137697
-0.00195559
0.137016
-0.00206587
0.136302
-0.00216608
0.135556
-0.00225741
0.134783
-0.00233722
0.133986
-0.0024078
0.133168
-0.00246517
0.132334
-0.00251335
0.131489
-0.0025464
0.130635
-0.00257094
-0.00257836
0.142436
-0.000421952
-0.142641
0.142177
-0.000533393
0.14186
-0.000647579
0.141488
-0.000758213
0.141064
-0.00086287
0.14059
-0.000961562
0.140068
-0.00105527
0.139502
-0.00114422
0.138893
-0.00122847
0.138245
-0.00130721
0.137559
-0.00138037
0.13684
-0.00144698
0.13609
-0.00150744
0.135314
-0.0015605
0.134513
-0.0016071
0.133693
-0.00164526
0.132857
-0.00167696
0.132009
-0.00169889
0.131153
-0.00171502
-0.00171977
0.142853
-0.000210702
-0.143064
0.142587
-0.000267886
0.142265
-0.000325335
0.141887
-0.000380631
0.141457
-0.000432796
0.140978
-0.00048209
0.140451
-0.000528828
0.139881
-0.000573359
0.139267
-0.000615324
0.138615
-0.000654784
0.137926
-0.000691064
0.137203
-0.000724552
0.13645
-0.000754321
0.135671
-0.000781242
0.134868
-0.000803822
0.134046
-0.000823643
0.133207
-0.000838359
0.132359
-0.000850612
0.131501
-0.000856978
-0.000860646
0.143062
-0.143273
0.142794
0.142469
0.142088
0.141656
0.141174
0.140645
0.140071
0.139456
0.138801
0.13811
0.137386
0.136631
0.13585
0.135046
0.134223
0.133384
0.132534
0.131677
0.0953916
0.016981
-0.0937233
0.0972848
0.0264031
0.099434
0.0358164
0.101807
0.0451514
0.104454
0.0541995
0.107336
0.0629667
0.110128
0.0713893
0.113275
0.0785344
0.113733
0.0866921
0.0877933
0.0961067
0.0154509
-0.0945766
0.0979109
0.0245989
0.100019
0.0337081
0.102449
0.0427216
0.105089
0.051559
0.108248
0.0598084
0.111189
0.0684478
0.114995
0.0747284
0.117956
0.0837316
0.0865423
0.0970186
0.014077
-0.0956447
0.0987225
0.022895
0.10072
0.031711
0.103146
0.0402952
0.105733
0.0489723
0.108928
0.0566132
0.112118
0.0652576
0.11575
0.0710967
0.119842
0.0796391
0.0837517
0.0980575
0.0128357
-0.0968162
0.0996784
0.0212741
0.101585
0.0298044
0.103955
0.0379247
0.10655
0.046378
0.109615
0.0535483
0.11303
0.0618422
0.116471
0.067656
0.120818
0.0752916
0.0799939
0.0991797
0.0116956
-0.0980397
0.100727
0.0197269
0.102597
0.0279339
0.104895
0.0356267
0.107547
0.0437269
0.110495
0.0506001
0.11401
0.0583269
0.117487
0.0641794
0.121753
0.0710254
0.0758275
0.100348
0.0106307
-0.0992833
0.101827
0.0182481
0.103694
0.0260669
0.105942
0.0333791
0.108645
0.0410231
0.11158
0.0476653
0.115106
0.0548013
0.118711
0.0605737
0.122873
0.0668639
0.0715262
0.101529
0.00962574
-0.100524
0.102951
0.0168264
0.104818
0.0241996
0.107053
0.031144
0.109786
0.0382905
0.11278
0.0446709
0.116298
0.0512838
0.120019
0.0568522
0.124164
0.0627195
0.0671591
0.102695
0.00867516
-0.101744
0.104075
0.0154459
0.105937
0.0223382
0.108188
0.028893
0.110937
0.0355407
0.114012
0.0415965
0.11755
0.0477452
0.121372
0.0530304
0.125579
0.0585129
0.0627171
0.103825
0.00777641
-0.102926
0.105178
0.0140933
0.10703
0.0204856
0.109309
0.026614
0.112081
0.032769
0.115233
0.0384448
0.118829
0.0441486
0.122752
0.0491077
0.127061
0.0542035
0.0581731
0.104906
0.00692602
-0.104055
0.106239
0.0127605
0.108085
0.0186392
0.110394
0.0243052
0.113198
0.0299645
0.116422
0.0352206
0.120098
0.040473
0.124125
0.0450808
0.128552
0.0497763
0.0535015
0.105924
0.00611892
-0.105117
0.107242
0.0114434
0.109086
0.0167944
0.111424
0.0219678
0.114268
0.0271199
0.117561
0.0319277
0.121321
0.0367131
0.125454
0.0409484
0.130004
0.0452263
0.0486867
0.10687
0.00534936
-0.106101
0.108174
0.0101395
0.110021
0.014947
0.112386
0.0196036
0.115273
0.0242328
0.118631
0.0285696
0.122473
0.0328707
0.126711
0.0367108
0.131383
0.0405545
0.0437235
0.107734
0.00461181
-0.106996
0.109026
0.00884708
0.110879
0.0130946
0.113268
0.0172143
0.116196
0.0213045
0.119616
0.0251498
0.123537
0.0289502
0.127876
0.0323716
0.132664
0.0357662
0.0386155
0.108508
0.00390125
-0.107797
0.109791
0.00756414
0.111649
0.0112363
0.114062
0.0148017
0.117028
0.0183378
0.120505
0.0216727
0.124498
0.0249579
0.128931
0.0279377
0.133827
0.0308706
0.0333718
0.109186
0.00321333
-0.108498
0.110461
0.00628903
0.112325
0.00937193
0.114759
0.012368
0.11776
0.0153366
0.121289
0.0181441
0.125345
0.0209015
0.129864
0.023419
0.134855
0.0258794
0.0280061
0.109765
0.00254447
-0.109096
0.111033
0.00502034
0.112903
0.00750212
0.115355
0.00991598
0.118386
0.0123057
0.121959
0.014571
0.126071
0.01679
0.130663
0.018827
0.135736
0.0208058
0.0225352
0.110242
0.00189104
-0.109588
0.111505
0.0037573
0.113379
0.00562821
0.115845
0.0074491
0.118901
0.00925048
0.12251
0.0109612
0.126667
0.0126333
0.131319
0.0141747
0.13646
0.0156648
0.016978
0.110612
0.00125001
-0.109971
0.11187
0.00249975
0.113746
0.00375189
0.116224
0.00497127
0.119297
0.00617691
0.122935
0.00732322
0.127127
0.00844189
0.131825
0.00947598
0.137018
0.0104723
0.0113553
0.110868
0.00062331
-0.110241
0.112121
0.00124712
0.113997
0.00187524
0.116482
0.00248684
0.119567
0.00309133
0.123224
0.00366628
0.127439
0.0042269
0.132169
0.00474574
0.137397
0.0052447
0.00568817
0.111001
-0.110377
0.112248
0.114123
0.11661
0.119701
0.123367
0.127594
0.13234
0.137585
0.0458674
0.0606632
-0.0551863
-0.0513443
0.0400515
0.0605649
-0.054749
0.0343479
0.0608652
-0.0551615
0.0287346
0.0616477
-0.0560345
0.0231611
0.0628453
-0.0572718
0.0175994
0.064503
-0.0589412
0.0120498
0.0666243
-0.0610747
0.00668388
0.0681388
-0.0627729
0.00216862
0.0637165
-0.0592012
0.0383529
-0.0361842
0.0423812
0.0662949
-0.0480128
0.036817
0.0661291
0.0313696
0.0663125
0.0260442
0.0669731
0.0207861
0.0681033
0.0155522
0.069737
0.0103643
0.0718122
0.00545852
0.0730445
0.00156022
0.0676148
0.0399131
0.0383545
0.0715515
-0.0436111
0.0331029
0.0713806
0.027942
0.0714735
0.0229112
0.0720039
0.0179814
0.0730331
0.0131133
0.074605
0.00835503
0.0765704
0.00400882
0.0773907
0.000835067
0.0707885
0.0407481
0.0334876
0.0763736
-0.0383097
0.028677
0.0761912
0.0239188
0.0762317
0.019272
0.0766507
0.0147366
0.0775685
0.0102917
0.07905
0.00601757
0.0808445
0.0023324
0.0810759
-5.28779e-05
0.0731738
0.0406953
0.0278348
0.0807301
-0.0321914
0.0235126
0.0805135
0.0192465
0.0804977
0.0150798
0.0808175
0.0110223
0.0816261
0.00707949
0.0829928
0.00336525
0.0845588
0.000336295
0.0841048
-0.000809121
0.0743192
0.0398861
0.0214132
0.0845479
-0.0252309
0.0176515
0.0842751
0.0139537
0.0841956
0.0103475
0.0844236
0.00684977
0.0851238
0.00350267
0.0863399
0.000512679
0.0875487
-0.00152798
0.0861455
-0.00166825
0.0744595
0.0382179
0.0143199
0.0877333
-0.0175053
0.0111858
0.0874092
0.00811487
0.0872665
0.00513041
0.0874081
0.00226268
0.0879915
-0.000422583
0.0890251
-0.00260846
0.0897346
-0.00359593
0.087133
-0.00253409
0.0733977
0.0356838
0.0066368
0.0902305
-0.00913404
0.00417495
0.0898711
0.00179683
0.0896446
-0.000505208
0.0897101
-0.00271974
0.0902061
-0.00466922
0.0909746
-0.00594903
0.0910144
-0.00576463
0.0869486
-0.0033616
0.0709946
0.0323222
-0.00154148
0.0921271
-0.0003551
-0.003283
0.0916126
-0.00496146
0.0913231
-0.00657604
0.0913247
-0.00804743
0.0916775
-0.00917228
0.0920994
-0.00941716
0.0912593
-0.0078997
0.0854311
-0.00407843
0.0671734
0.0282438
-0.010111
0.0091654
-0.0110923
-0.01204
-0.0129186
-0.0136193
-0.0138271
-0.0128814
-0.0098729
-0.00459798
0.0488749
0.00461203
-0.0534869
0.0440941
0.00478078
0.0391176
0.00497655
0.0339215
0.00519602
0.028474
0.00544757
0.0227313
0.00574267
0.0166429
0.00608838
0.0102287
0.00641426
0.00398468
0.00624398
0.00398468
0.0491419
0.00930959
-0.0538395
0.0442872
0.00963547
0.039249
0.0100148
0.0340035
0.0104415
0.0285182
0.0109328
0.0227491
0.0115118
0.016643
0.0121944
0.0102178
0.0128395
0.00398295
0.0124788
0.00796763
0.0496253
0.0141682
-0.0544839
0.0446315
0.0146292
0.0394771
0.0151692
0.0341379
0.0157807
0.0285809
0.0164898
0.0227609
0.0173318
0.0166248
0.0183305
0.0101908
0.0192734
0.00396238
0.0187073
0.01193
0.0502278
0.0192397
-0.0552993
0.0450499
0.019807
0.0397413
0.0204779
0.0342779
0.0212441
0.0286264
0.0221413
0.0227415
0.0232167
0.0165696
0.0245025
0.0101297
0.0257133
0.00392404
0.0249129
0.015854
0.0508183
0.0245494
-0.056128
0.0454324
0.0251929
0.0399499
0.0259604
0.0343496
0.0268444
0.0285981
0.0278927
0.0226484
0.0291665
0.0164464
0.0307045
0.0100148
0.0321449
0.00385722
0.0310705
0.0197113
0.0512679
0.0300783
-0.0567968
0.0456816
0.0307791
0.0400253
0.0316168
0.0342886
0.0325812
0.0284417
0.0337396
0.0224371
0.0351712
0.0162212
0.0369203
0.00982339
0.0385428
0.00375109
0.0371428
0.0234623
0.0513718
0.0358174
-0.0571109
0.0455921
0.0365588
0.0397884
0.0374205
0.0339551
0.0384145
0.0280526
0.039642
0.02203
0.0411937
0.0158388
0.0431116
0.00952128
0.0448603
0.00359595
0.0430681
0.0270583
0.0512123
0.0417073
-0.0571022
0.045239
0.0425321
0.0393023
0.0433572
0.0333902
0.0443266
0.0274465
0.0455857
0.0214234
0.0472168
0.0152835
0.0492515
0.0090893
0.0510545
0.00338128
0.0487762
0.0304396
0.0500779
0.0479561
-0.0563266
0.0439793
0.0486307
0.0380953
0.0492412
0.0322603
0.0501616
0.0263988
0.0514472
0.0204791
0.0531364
0.0144768
0.0552538
0.0084828
0.0570485
0.00307356
0.0541854
0.0335131
0.0487731
-0.0560033
0.0426548
0.0367344
0.0308616
0.025037
0.0192322
0.0134113
0.00768693
0.00267111
0.0581418
-0.000220771
0.0583613
-0.000219566
0.0585777
-0.000216342
0.0587835
-0.0002058
0.0589719
-0.000188454
0.0591369
-0.000165005
0.0592722
-0.000135212
0.0593704
-9.8223e-05
0.0594229
-5.24986e-05
0.0594181
4.80758e-06
0.0593557
6.24232e-05
0.0592219
0.000133704
0.0590037
0.000218199
0.0586862
0.000317518
0.0582524
0.000433827
0.0576821
0.000570292
0.0569528
0.000729336
0.0560344
0.000918341
0.0549029
0.00113149
0.00141603
0.0587906
-0.00044429
0.0590058
-0.000434714
0.0592131
-0.000423706
0.059408
-0.000400705
0.059585
-0.000365454
0.0597382
-0.000318192
0.0598611
-0.000258082
0.0599463
-0.000183384
0.0599847
-9.09298e-05
0.0599681
2.13699e-05
0.0598916
0.000138935
0.0597428
0.000282512
0.0595085
0.000452479
0.0591739
0.000652191
0.0587218
0.000885917
0.0581319
0.00116017
0.0573817
0.00147948
0.0564404
0.00185966
0.0552851
0.0022868
0.00286167
0.0600681
-0.000641342
0.0602601
-0.000626685
0.0604448
-0.000608477
0.0606166
-0.000572446
0.0607695
-0.000518351
0.0608975
-0.000446246
0.0609941
-0.000354713
0.0610517
-0.000240923
0.0610607
-9.9962e-05
0.0610178
6.42561e-05
0.0609117
0.000245026
0.0607312
0.000463014
0.0604633
0.000720405
0.0600929
0.00102261
0.059603
0.00137585
0.0589726
0.00179049
0.0581799
0.00227223
0.0571917
0.00284781
0.0559889
0.00348969
0.00436663
0.0619189
-0.000798577
0.0620706
-0.000778336
0.0622146
-0.000752496
0.0623452
-0.000703054
0.0624562
-0.000629348
0.0625412
-0.000531298
0.0625936
-0.000407092
0.0626051
-0.000252433
0.0625649
-5.97045e-05
0.0624769
0.000152218
0.0623219
0.000400068
0.0620894
0.00069549
0.0617669
0.00104294
0.0613389
0.00145055
0.0607887
0.0019261
0.0600942
0.00248493
0.0592346
0.00313185
0.058173
0.00390944
0.0568966
0.00476605
0.00596397
0.0642699
-0.000892003
0.064359
-0.000867359
0.0644395
-0.000833046
0.0645058
-0.000769324
0.0645513
-0.000674857
0.0645694
-0.000549428
0.0645528
-0.000390467
0.0644932
-0.000192843
0.064385
4.85384e-05
0.064226
0.000311131
0.0639967
0.000629367
0.0636869
0.00100532
0.0632842
0.00144561
0.0627727
0.00196205
0.062136
0.00256283
0.0613503
0.00327066
0.0603969
0.00408522
0.0592326
0.00507376
0.057855
0.00614361
0.00769097
0.0670324
-0.000891786
0.0670315
-0.000866439
0.0670199
-0.000821528
0.0669924
-0.0007418
0.0669428
-0.000625235
0.0668644
-0.000471072
0.0667499
-0.000275925
0.0665844
-2.73754e-05
0.0663883
0.000244675
0.0661252
0.000574194
0.0657909
0.000963716
0.0653736
0.00142258
0.0648611
0.00195809
0.0642361
0.00258711
0.0634834
0.00331552
0.0625756
0.00417844
0.0614986
0.00516225
0.0601986
0.00637371
0.0586891
0.00765319
0.00958326
0.0701133
-0.000765011
0.069989
-0.000742169
0.0698501
-0.00068259
0.0696926
-0.000584359
0.0695123
-0.000444909
0.0693017
-0.000260463
0.0690458
-2.00101e-05
0.0687669
0.000251489
0.0684296
0.000582056
0.0680284
0.000975302
0.0675551
0.00143702
0.0669963
0.00198137
0.066341
0.00261342
0.0655692
0.00335893
0.0646698
0.00421494
0.0636088
0.00523943
0.0623818
0.00638923
0.0609159
0.00783962
0.0592369
0.00933222
0.0117092
0.0734273
-0.000482182
0.0731373
-0.00045217
0.072829
-0.00037426
0.0724997
-0.000255023
0.0721456
-9.08049e-05
0.0717619
0.000123238
0.0713526
0.000389266
0.0708935
0.00071055
0.0703812
0.00109442
0.0698049
0.00155162
0.0691559
0.00208597
0.0684188
0.00271846
0.0675848
0.00344741
0.0666288
0.00431498
0.0655466
0.00529711
0.0642931
0.00649294
0.0628851
0.00779719
0.0612271
0.00949766
0.05939
0.0111693
0.013997
0.0768972
7.49237e-07
0.0763922
5.28642e-05
0.0758674
0.000150534
0.0753235
0.000288844
0.0747586
0.000474086
0.0741671
0.00071471
0.0735417
0.00101474
0.0728705
0.00138168
0.0721471
0.00181791
0.071359
0.00233966
0.0704989
0.00294608
0.0695481
0.00366925
0.0685029
0.00449261
0.0673296
0.00548833
0.0660378
0.00658891
0.0645518
0.00797887
0.0629269
0.00942212
0.0609697
0.0114549
0.0589218
0.0132172
0.0165922
0.0804878
0.000813314
0.0796945
0.000846147
0.0789032
0.000941818
0.0781017
0.00109039
0.0772823
0.00129343
0.0764379
0.00155915
0.0755611
0.0018915
0.0746416
0.00230118
0.0736717
0.0027878
0.0726377
0.0033737
0.0715345
0.00404934
0.0703405
0.00486321
0.0690613
0.00577181
0.0676557
0.00689396
0.0661665
0.00807811
0.0644926
0.00965276
0.062803
0.0111117
0.060767
0.0134909
0.0589264
0.0150578
0.0195152
0.0777895
0.000790507
0.0777802
0.000855378
0.0777679
0.000954134
0.0777579
0.00110041
0.0777513
0.00130007
0.0777478
0.00156258
0.0777498
0.00188949
0.0777578
0.00229323
0.0777771
0.00276851
0.0778081
0.00334264
0.0778649
0.00399258
0.0779444
0.0047837
0.0780809
0.00563528
0.0782557
0.00671917
0.0785563
0.00777758
0.0789096
0.00929945
0.0795485
0.0104728
0.0803045
0.0127348
0.0818837
0.0134786
0.0169167
0.0844822
0.0814381
0.000804697
0.0814244
0.000869125
0.0814166
0.000961895
0.0814165
0.00110048
0.0814245