/*--------------------------------*- C++ -*----------------------------------*\
| =========                 |                                                 |
| \\      /  F ield         | OpenFOAM: The Open Source CFD Toolbox           |
|  \\    /   O peration     | Version:  4.1                                   |
|   \\  /    A nd           | Web:      www.OpenFOAM.org                      |
|    \\/     M anipulation  |                                                 |
\*---------------------------------------------------------------------------*/
FoamFile
{
    version     2.0;
    format      ascii;
    class       volVectorField;
    location    "8";
    object      U;
}
// * * * * * * * * * * * * * * * * * * * * * * * * * * * * * * * * * * * * * //

dimensions      [0 1 -1 0 0 0 0];

internalField   nonuniform List<vector> 
2000
(
(-0.0422434 0.0359371 4.95449e-20)
(-0.0185921 0.0421359 0)
(0.0989705 0.0259434 7.94005e-20)
(0.295297 0.00247567 3.56105e-20)
(0.548102 -0.0183159 -6.63544e-20)
(0.823833 -0.0328467 -8.98347e-20)
(1.09073 -0.0395941 2.83207e-20)
(1.32026 -0.0459922 0)
(1.52226 -0.0410337 -2.30175e-20)
(1.64129 -0.0534472 0)
(-0.0374789 0.0285083 -2.45411e-20)
(0.0279345 0.019004 2.18215e-20)
(0.215339 -0.00308066 -8.39569e-20)
(0.492284 -0.0227905 -1.12209e-19)
(0.80919 -0.0329502 -9.85999e-22)
(1.11387 -0.0343597 2.95514e-20)
(1.37114 -0.0305985 -2.82948e-20)
(1.56886 -0.0274238 -2.49036e-20)
(1.70855 -0.0210701 2.30167e-20)
(1.78259 -0.0304388 3.97288e-20)
(-0.0251733 0.0188956 2.65374e-20)
(0.101441 -0.00573035 -2.48565e-20)
(0.376715 -0.0265989 4.224e-20)
(0.732003 -0.0338579 -1.71559e-21)
(1.08429 -0.028688 3.41921e-20)
(1.37688 -0.0179425 3.08138e-20)
(1.59066 -0.00744771 2.7726e-20)
(1.73086 -0.00159505 2.49034e-20)
(1.814 0.00242549 2.13895e-20)
(1.86434 -0.00532619 -1.89181e-20)
(-0.00250417 0.00740696 -7.47236e-22)
(0.20721 -0.0285602 -2.65818e-20)
(0.579014 -0.0378161 0)
(0.988484 -0.0262735 3.75876e-20)
(1.33457 -0.00694144 -3.68614e-20)
(1.58091 0.0104691 0)
(1.73515 0.0216178 0)
(1.82197 0.025545 0)
(1.86979 0.0264898 -2.13908e-20)
(1.89001 0.0178841 3.63703e-20)
(0.0334522 -0.00482779 6.31963e-20)
(0.347079 -0.0434797 6.51255e-23)
(0.805727 -0.0309075 2.50072e-20)
(1.22953 -0.000501754 1.98923e-20)
(1.53406 0.0269644 1.84098e-20)
(1.71989 0.0446497 1.55889e-20)
(1.81997 0.052482 0)
(1.86972 0.0531568 1.11748e-20)
(1.89339 0.0502931 -4.71311e-20)
(1.90828 0.0407546 6.16005e-20)
(0.085133 -0.0155051 -9.94395e-20)
(0.516147 -0.0432995 2.0856e-21)
(1.03193 -0.00414231 -4.96929e-20)
(1.43177 0.0394081 4.45829e-20)
(1.67746 0.0680634 -5.34444e-20)
(1.80604 0.0816853 1.73019e-20)
(1.86537 0.0846551 0)
(1.89097 0.0813697 -1.11758e-20)
(1.90448 0.0750351 9.49299e-21)
(1.91428 0.0655972 2.80957e-20)
(0.153427 -0.0213041 0)
(0.701214 -0.0229064 0)
(1.23543 0.0401864 -2.55614e-20)
(1.5869 0.089123 2.37954e-20)
(1.77204 0.113605 -1.72e-20)
(1.85389 0.120768 1.61485e-20)
(1.88511 0.118122 2.28036e-20)
(1.89743 0.110754 -2.1555e-20)
(1.9053 0.101365 -1.52533e-20)
(1.91436 0.0912951 7.29414e-21)
(0.236726 -0.0185921 1.96809e-20)
(0.884386 0.0185387 0)
(1.40375 0.0983046 -1.20495e-20)
(1.69669 0.145465 4.49951e-20)
(1.82773 0.162097 -2.81404e-20)
(1.87458 0.161511 0)
(1.8881 0.153055 0)
(1.89325 0.14154 0)
(1.89943 0.129251 -1.28072e-20)
(1.90822 0.118383 1.21742e-20)
(0.330403 -0.00443041 -1.00669e-20)
(1.04963 0.0781584 -3.7068e-22)
(1.53266 0.166416 -1.39264e-20)
(1.76666 0.206134 5.31091e-21)
(1.85323 0.212542 5.04042e-21)
(1.87559 0.203652 7.17952e-21)
(1.87866 0.189312 0)
(1.88072 0.173608 -1.63992e-21)
(1.88639 0.158571 -6.10066e-21)
(1.89531 0.145911 4.68108e-21)
(0.427452 0.022675 0)
(1.18679 0.151461 -8.63349e-21)
(1.62245 0.240986 0)
(1.80281 0.269323 -3.00188e-21)
(1.85505 0.264118 -2.77583e-21)
(1.86127 0.24671 -3.18645e-21)
(1.85884 0.226436 0)
(1.85995 0.206441 1.64009e-21)
(1.86611 0.188525 1.1758e-21)
(1.87563 0.173434 4.64538e-22)
(-0.0100539 0.00955844 0)
(-0.0396861 0.0174492 -4.38984e-21)
(-0.0811931 0.020033 0)
(-0.120989 0.0203523 -5.78201e-21)
(-0.156629 0.0196945 -1.83635e-21)
(-0.188041 0.0186732 3.44469e-21)
(-0.215466 0.0176088 -3.24406e-21)
(-0.239333 0.0166865 3.11099e-21)
(-0.260321 0.0160686 7.5325e-24)
(-0.279635 0.0159362 2.80507e-21)
(-0.0116603 0.0274276 -1.39002e-20)
(-0.0404957 0.0504197 8.6931e-21)
(-0.0785593 0.0581415 -8.26116e-21)
(-0.113974 0.0591122 3.83278e-21)
(-0.144625 0.0570578 1.82569e-20)
(-0.170397 0.0537903 -6.86112e-21)
(-0.191452 0.0502769 0)
(-0.208068 0.0471183 -3.10052e-21)
(-0.220625 0.0448341 -2.95119e-21)
(-0.230719 0.0440403 0)
(-0.0145962 0.0418231 9.27117e-21)
(-0.042189 0.0779698 0)
(-0.0740913 0.0906004 2.49899e-20)
(-0.101555 0.0922302 -3.12919e-20)
(-0.123098 0.0886175 7.36912e-21)
(-0.138638 0.082641 0)
(-0.14828 0.0758726 0)
(-0.15218 0.0693736 0)
(-0.150068 0.0641246 2.40304e-20)
(-0.143021 0.0614579 -2.2838e-20)
(-0.0183557 0.0513918 0)
(-0.0448087 0.0976149 -1.82896e-20)
(-0.0690054 0.114449 3.39965e-20)
(-0.0860958 0.116625 -1.58765e-20)
(-0.0955706 0.111327 1.50782e-20)
(-0.0975511 0.102248 -4.26793e-20)
(-0.0921791 0.0913803 -1.59132e-22)
(-0.0797855 0.0800321 2.55518e-20)
(-0.0598304 0.0698761 2.42398e-20)
(-0.0283912 0.0646434 -3.45434e-20)
(-0.0224521 0.0559604 1.95997e-20)
(-0.0482835 0.108248 -3.75222e-20)
(-0.0643003 0.12784 -1.30742e-22)
(-0.0695456 0.130072 1.54028e-22)
(-0.064703 0.122928 1.52486e-20)
(-0.0502474 0.110643 -4.31699e-20)
(-0.0264281 0.0953444 0)
(0.00633386 0.0783655 -1.29511e-20)
(0.0482503 0.0617333 1.2259e-20)
(0.107178 0.0510565 -4.67389e-20)
(-0.0266104 0.0563651 -2.85052e-22)
(-0.0523103 0.110153 3.80096e-20)
(-0.0600849 0.130212 1.75091e-20)
(-0.0521432 0.131309 1.67777e-20)
(-0.0303016 0.12179 1.53315e-20)
(0.00460976 0.106219 1.44581e-20)
(0.052385 0.086853 0)
(0.11264 0.0650642 1.295e-20)
(0.181401 0.0417592 3.63787e-20)
(0.283414 0.0236074 -1.19961e-20)
(-0.0308259 0.0540236 5.21008e-23)
(-0.0561585 0.10481 1.95932e-20)
(-0.0547463 0.12227 0)
(-0.0309868 0.120269 -3.28754e-20)
(0.0127566 0.107286 3.11119e-20)
(0.0753958 0.0880463 0)
(0.156357 0.0651392 0)
(0.256083 0.0408509 0)
(0.35709 0.0131317 -2.45678e-20)
(0.520737 -0.00994178 -4.65122e-20)
(-0.0351081 0.0503504 -2.14464e-20)
(-0.0583101 0.094149 2.00894e-20)
(-0.0442089 0.105717 3.69527e-20)
(0.00148556 0.0984392 4.33658e-22)
(0.0763464 0.0808469 3.14198e-20)
(0.178614 0.0578745 2.931e-20)
(0.305237 0.0322969 2.74883e-20)
(0.456409 0.00849506 2.57897e-20)
(0.594444 -0.0194746 2.45642e-20)
(0.823906 -0.0400532 -2.25506e-20)
(-0.0391614 0.0461853 -6.73107e-20)
(-0.0558677 0.079754 -1.99861e-20)
(-0.0214272 0.0827732 -7.4111e-20)
(0.0575389 0.068738 -3.39978e-20)
(0.177794 0.0465338 3.87298e-22)
(0.33399 0.0214156 -2.90669e-20)
(0.516828 -0.00347947 2.76525e-20)
(0.718696 -0.0238962 -2.57859e-20)
(0.897275 -0.0461695 2.41923e-20)
(1.15782 -0.0564789 -4.56885e-20)
(-0.0420734 0.0415769 4.52588e-20)
(-0.0444642 0.062406 0)
(0.0229584 0.0555173 3.77909e-20)
(0.15155 0.035092 -5.04107e-23)
(0.33323 0.0107779 5.24744e-22)
(0.552406 -0.012201 2.94271e-20)
(0.789388 -0.030218 -8.30786e-20)
(1.0206 -0.044849 0)
(1.23097 -0.0543472 -2.41887e-20)
(1.45105 -0.0566778 0)
(-0.298304 0.016107 0)
(-0.317819 0.0149336 -2.75683e-21)
(-0.335494 0.0135052 5.52507e-21)
(-0.351405 0.0119724 -2.42116e-21)
(-0.365426 0.0103182 0)
(-0.377344 0.00853559 2.67611e-21)
(-0.386932 0.00662316 -2.68937e-21)
(-0.393928 0.00458285 0)
(-0.398073 0.00238932 0)
(-0.399307 2.22862e-05 3.0278e-22)
(-0.397501 -0.00254205 0)
(-0.392376 -0.0052975 0)
(-0.383627 -0.00826239 0)
(-0.370903 -0.0114742 0)
(-0.35378 -0.0149928 -3.39841e-22)
(-0.331943 -0.0188741 3.41602e-22)
(-0.305341 -0.0230459 0)
(-0.272797 -0.0271968 -6.19248e-23)
(-0.229585 -0.0311336 6.22507e-23)
(-0.178436 -0.0350326 0)
(-0.241711 0.0445378 0)
(-0.257222 0.041027 7.04059e-22)
(-0.270648 0.0369058 0)
(-0.282383 0.0324542 1.07517e-20)
(-0.292429 0.02763 -1.04476e-20)
(-0.300558 0.022419 6.93975e-22)
(-0.306536 0.016809 -5.31236e-21)
(-0.310149 0.0108208 1.11651e-20)
(-0.311202 0.00446482 -9.50832e-21)
(-0.309638 -0.00245893 5.31258e-21)
(-0.305278 -0.00987651 4.45697e-21)
(-0.297875 -0.0177743 -8.05357e-21)
(-0.287246 -0.0261853 4.14642e-21)
(-0.273194 -0.0351803 2.11301e-21)
(-0.25549 -0.0448875 -1.66458e-21)
(-0.23396 -0.0554694 3.3515e-22)
(-0.20871 -0.0668738 2.65324e-22)
(-0.179436 -0.0783831 2.74891e-22)
(-0.142445 -0.0890048 -2.76224e-22)
(-0.0940842 -0.0988158 1.80094e-23)
(-0.141776 0.062919 -7.16347e-22)
(-0.150001 0.0567315 -7.05296e-22)
(-0.155661 0.0505641 -7.19532e-22)
(-0.159961 0.043624 0)
(-0.162958 0.0360405 -1.26805e-20)
(-0.16442 0.0278243 9.90339e-21)
(-0.164081 0.0189767 0)
(-0.161671 0.00957916 -1.35144e-21)
(-0.157389 -0.000609823 -6.44792e-22)
(-0.151 -0.0115706 8.54351e-21)
(-0.142136 -0.0231818 -5.91627e-22)
(-0.130748 -0.0354291 -1.04087e-20)
(-0.116755 -0.048301 -5.28985e-22)
(-0.100102 -0.0618098 -4.5342e-22)
(-0.0807882 -0.0760203 -4.21085e-22)
(-0.0588642 -0.0910754 9.04472e-22)
(-0.0345331 -0.107098 -8.45633e-22)
(-0.00815392 -0.123756 -9.49387e-22)
(0.0210683 -0.139548 -1.93613e-22)
(0.06335 -0.15281 2.26298e-23)
(-0.0133602 0.0642165 -2.24538e-20)
(-0.0136365 0.05823 6.05949e-23)
(-0.00881563 0.0510212 7.47793e-22)
(-0.00396104 0.0422273 2.33024e-20)
(0.00190483 0.0326079 2.1761e-21)
(0.00885099 0.0221462 7.09541e-22)
(0.0172437 0.0109269 -2.0953e-20)
(0.0268466 -0.00133308 1.22108e-20)
(0.0376686 -0.0147021 1.09531e-20)
(0.0502838 -0.0288823 -1.07999e-20)
(0.0647329 -0.0438536 5.73763e-22)
(0.0810165 -0.059552 1.13556e-20)
(0.099157 -0.0758894 5.24586e-22)
(0.119115 -0.0927739 4.64959e-21)
(0.140781 -0.110133 -3.25091e-21)
(0.163968 -0.127914 -2.62974e-21)
(0.188243 -0.146072 2.31669e-21)
(0.213412 -0.164678 0)
(0.238069 -0.182676 3.94756e-22)
(0.273848 -0.199612 2.95239e-23)
(0.137106 0.0495606 4.61983e-20)
(0.149418 0.0454919 -2.21192e-20)
(0.161363 0.0373684 2.36378e-20)
(0.175276 0.0275086 0)
(0.190331 0.0167236 -1.4596e-21)
(0.206174 0.00498404 -2.31724e-20)
(0.222588 -0.00807969 -1.02945e-21)
(0.239477 -0.0225499 5.58401e-22)
(0.257414 -0.0380559 2.23252e-20)
(0.276539 -0.0545101 1.30758e-21)
(0.296778 -0.0718672 0)
(0.318093 -0.0899813 -1.17046e-21)
(0.340443 -0.108688 0)
(0.363695 -0.12778 -9.80702e-22)
(0.387664 -0.147063 0)
(0.412172 -0.16632 0)
(0.436467 -0.185246 5.93482e-22)
(0.461452 -0.203889 -7.27818e-22)
(0.482138 -0.220699 6.44257e-22)
(0.514085 -0.239393 -1.81483e-22)
(0.322234 0.0241663 0)
(0.34398 0.0200063 -1.48862e-21)
(0.361936 0.0116865 -4.76855e-20)
(0.382575 0.0014404 4.61941e-20)
(0.405032 -0.00997834 -1.48359e-21)
(0.427728 -0.0226927 0)
(0.450551 -0.0369798 -2.30398e-20)
(0.474002 -0.0525565 4.4111e-20)
(0.498041 -0.0693005 -2.38868e-20)
(0.522592 -0.0871284 -1.33917e-21)
(0.547607 -0.105894 -1.27717e-21)
(0.572923 -0.125355 -1.20189e-21)
(0.598453 -0.145292 0)
(0.623909 -0.16536 6.5837e-21)
(0.649079 -0.185302 -1.50785e-20)
(0.6738 -0.204731 6.59473e-21)
(0.696973 -0.223209 -6.12376e-22)
(0.720558 -0.240803 -4.51735e-22)
(0.737654 -0.255312 1.85821e-22)
(0.764722 -0.271861 -1.82609e-22)
(0.560551 -0.00788678 4.64039e-20)
(0.586735 -0.0116172 0)
(0.607227 -0.0204734 -1.49382e-21)
(0.630052 -0.0313366 2.97647e-21)
(0.655385 -0.0432023 2.96061e-21)
(0.681642 -0.0564296 1.46363e-21)
(0.708151 -0.0711176 1.44281e-21)
(0.73493 -0.0872229 -2.10127e-20)
(0.761995 -0.104586 2.51355e-20)
(0.789101 -0.122994 2.34174e-20)
(0.816137 -0.142262 -1.94637e-20)
(0.84267 -0.162041 2.36532e-21)
(0.868694 -0.182096 -8.37076e-21)
(0.89355 -0.201915 1.86558e-21)
(0.917345 -0.22129 9.20357e-21)
(0.93939 -0.239587 7.34541e-22)
(0.959314 -0.256516 -8.88858e-22)
(0.978082 -0.271834 1.08963e-21)
(0.991128 -0.283728 1.68756e-21)
(1.00944 -0.296096 8.67676e-23)
(0.856259 -0.036258 0)
(0.879661 -0.0403412 -4.81711e-20)
(0.897783 -0.0508093 4.94587e-20)
(0.918635 -0.0625054 -1.48983e-21)
(0.942564 -0.0747492 -2.93124e-21)
(0.967664 -0.0884613 -1.46228e-21)
(0.993214 -0.103718 -2.84967e-21)
(1.01895 -0.120204 0)
(1.04474 -0.137739 -1.36127e-21)
(1.07002 -0.156085 -1.30695e-21)
(1.09474 -0.175066 -1.21389e-21)
(1.11805 -0.194223 -2.29729e-21)
(1.14035 -0.213381 0)
(1.16018 -0.231848 0)
(1.1788 -0.249608 -8.47562e-22)
(1.1938 -0.265687 -6.52879e-21)
(1.20764 -0.280284 4.51936e-21)
(1.21704 -0.292383 -4.06401e-22)
(1.22492 -0.301662 -8.47438e-22)
(1.22986 -0.309193 2.43764e-22)
(1.17848 -0.0537272 4.76489e-20)
(1.1941 -0.0609399 0)
(1.20785 -0.0728371 0)
(1.22467 -0.085009 -4.65464e-20)
(1.24393 -0.0981065 1.76359e-21)
(1.2641 -0.112674 9.06583e-20)
(1.28463 -0.128411 -4.3355e-20)
(1.30488 -0.144988 0)
(1.32468 -0.162301 0)
(1.34315 -0.180074 0)
(1.36064 -0.198141 6.22279e-22)
(1.37575 -0.215991 1.65314e-21)
(1.38973 -0.233531 1.53417e-20)
(1.39999 -0.249978 -1.47968e-20)
(1.40967 -0.26551 5.82781e-21)
(1.41377 -0.278902 -5.11114e-21)
(1.41912 -0.290881 0)
(1.41606 -0.299611 2.07065e-22)
(1.41795 -0.306494 2.40164e-22)
(1.40718 -0.309548 0)
(1.47343 -0.0625175 -7.52376e-22)
(1.48851 -0.073568 -4.72283e-20)
(1.50044 -0.0852758 4.67371e-20)
(1.5119 -0.0972547 0)
(1.52339 -0.110343 4.43117e-20)
(1.53467 -0.12448 -8.71079e-20)
(1.54569 -0.139447 4.28104e-20)
(1.55573 -0.155116 0)
(1.56493 -0.171413 1.93813e-20)
(1.57231 -0.188022 -3.7532e-20)
(1.57874 -0.204746 1.87293e-20)
(1.58237 -0.221073 -5.26671e-22)
(1.58539 -0.236888 0)
(1.58415 -0.251446 -1.29837e-20)
(1.58364 -0.264923 1.77948e-20)
(1.57647 -0.276153 -5.30975e-21)
(1.57335 -0.285969 -3.3431e-21)
(1.55906 -0.292383 2.36127e-21)
(1.5558 -0.297523 1.12114e-21)
(1.53218 -0.297837 0)
(1.74553 -0.0564924 0)
(1.74095 -0.0688901 0)
(1.73526 -0.0797558 0)
(1.73015 -0.091349 0)
(1.72676 -0.104184 0)
(1.72471 -0.117851 0)
(1.72365 -0.132029 0)
(1.72235 -0.146526 0)
(1.72099 -0.161313 0)
(1.71824 -0.176183 0)
(1.71528 -0.191058 0)
(1.70983 -0.205537 0)
(1.70464 -0.219571 0)
(1.6954 -0.232562 0)
(1.68801 -0.244659 0)
(1.67395 -0.254977 0)
(1.66551 -0.264069 0)
(1.64528 -0.270576 0)
(1.6387 -0.275692 0)
(1.60949 -0.277402 0)
(1.83466 -0.0481975 0)
(1.83728 -0.0612458 0)
(1.8345 -0.0734345 0)
(1.82931 -0.0862493 0)
(1.82444 -0.0999447 0)
(1.82012 -0.114162 0)
(1.8162 -0.128607 0)
(1.81146 -0.143074 0)
(1.80629 -0.157539 0)
(1.79944 -0.171823 0)
(1.79237 -0.185879 0)
(1.7828 -0.199354 0)
(1.77376 -0.212222 0)
(1.7608 -0.223962 0)
(1.75016 -0.234732 0)
(1.73305 -0.243755 0)
(1.7222 -0.251578 0)
(1.69972 -0.256937 0)
(1.69166 -0.261123 0)
(1.66121 -0.261896 0)
(1.88685 -0.0424142 0)
(1.89082 -0.0563856 0)
(1.88826 -0.0697277 0)
(1.88256 -0.0830776 0)
(1.87691 -0.09667 0)
(1.87171 -0.110407 0)
(1.86677 -0.124162 0)
(1.8608 -0.137783 0)
(1.85424 -0.151239 0)
(1.84586 -0.164373 0)
(1.83725 -0.177148 0)
(1.82618 -0.189276 0)
(1.81577 -0.200741 0)
(1.80157 -0.211125 0)
(1.78993 -0.22055 0)
(1.77198 -0.228412 0)
(1.76058 -0.23512 0)
(1.73778 -0.239728 0)
(1.72967 -0.243187 0)
(1.69941 -0.243887 0)
(1.91833 -0.0376926 0)
(1.92283 -0.0521466 0)
(1.92063 -0.0659854 0)
(1.91496 -0.0793019 0)
(1.90906 -0.0923796 0)
(1.90346 -0.105348 0)
(1.89807 -0.118226 0)
(1.89161 -0.130904 0)
(1.88454 -0.143339 0)
(1.87565 -0.155383 0)
(1.86658 -0.167006 0)
(1.85512 -0.177975 0)
(1.84446 -0.188281 0)
(1.83014 -0.197585 0)
(1.8185 -0.205978 0)
(1.80078 -0.212988 0)
(1.78962 -0.218911 0)
(1.76747 -0.223053 0)
(1.75969 -0.226082 0)
(1.73058 -0.226939 0)
(1.94029 -0.0344317 0)
(1.94498 -0.0487025 0)
(1.94338 -0.062387 0)
(1.93817 -0.0753204 0)
(1.93242 -0.0877665 0)
(1.92674 -0.0999486 0)
(1.92121 -0.111964 0)
(1.91462 -0.123736 0)
(1.90747 -0.135214 0)
(1.89852 -0.146259 0)
(1.88949 -0.156847 0)
(1.87813 -0.166785 0)
(1.86766 -0.176074 0)
(1.85368 -0.184434 0)
(1.84245 -0.191939 0)
(1.82535 -0.198211 0)
(1.81475 -0.203477 0)
(1.79354 -0.207212 0)
(1.78623 -0.209909 0)
(1.75852 -0.210812 0)
(1.96044 -0.0324008 0)
(1.965 -0.0459631 0)
(1.96385 -0.0590717 0)
(1.95911 -0.0714196 0)
(1.95357 -0.083181 0)
(1.94788 -0.0945779 0)
(1.94229 -0.105741 0)
(1.93567 -0.116619 0)
(1.92855 -0.127172 0)
(1.9197 -0.137269 0)
(1.91082 -0.146894 0)
(1.8997 -0.155883 0)
(1.88956 -0.164248 0)
(1.876 -0.171754 0)
(1.86526 -0.17847 0)
(1.84881 -0.184082 0)
(1.83878 -0.188777 0)
(1.81847 -0.192145 0)
(1.81164 -0.194552 0)
(1.78521 -0.195461 0)
(1.98218 -0.0309563 0)
(1.98627 -0.0435651 0)
(1.98528 -0.0558958 0)
(1.98085 -0.0675437 0)
(1.97546 -0.0785808 0)
(1.96973 -0.0891902 0)
(1.96405 -0.0995107 0)
(1.95734 -0.109516 0)
(1.95023 -0.11918 0)
(1.94144 -0.128383 0)
(1.93269 -0.137116 0)
(1.92176 -0.145238 0)
(1.91189 -0.152767 0)
(1.89869 -0.159503 0)
(1.88835 -0.165516 0)
(1.87243 -0.170537 0)
(1.86289 -0.174731 0)
(1.8433 -0.177759 0)
(1.83687 -0.179912 0)
(1.81145 -0.180788 0)
(2.00599 -0.0296736 0)
(2.00936 -0.0412736 0)
(2.00829 -0.0527367 0)
(2.00402 -0.063609 0)
(1.9987 -0.0738844 0)
(1.99289 -0.0837022 0)
(1.98706 -0.0931968 0)
(1.98021 -0.102359 0)
(1.97303 -0.111175 0)
(1.96422 -0.11954 0)
(1.95553 -0.127448 0)
(1.94469 -0.134772 0)
(1.93499 -0.141542 0)
(1.92201 -0.14758 0)
(1.91197 -0.15296 0)
(1.89641 -0.157445 0)
(1.88723 -0.161189 0)
(1.86817 -0.163898 0)
(1.86203 -0.165823 0)
(1.83736 -0.166633 0)
(2.03114 -0.0283907 0)
(2.03366 -0.038978 0)
(2.03237 -0.0495206 0)
(2.02815 -0.0595601 0)
(2.02285 -0.0690403 0)
(2.01692 -0.078061 0)
(2.01091 -0.0867452 0)
(2.00387 -0.0950922 0)
(1.99656 -0.103099 0)
(1.98766 -0.110671 0)
(1.97895 -0.117808 0)
(1.96812 -0.124394 0)
(1.9585 -0.130466 0)
(1.94563 -0.135864 0)
(1.93577 -0.140666 0)
(1.92044 -0.144661 0)
(1.91151 -0.147995 0)
(1.89279 -0.150405 0)
(1.88686 -0.152119 0)
(1.86271 -0.152847 0)
(2.05669 -0.0270227 0)
(2.05835 -0.0365944 0)
(2.05675 -0.0461844 0)
(2.0525 -0.0553531 0)
(2.04717 -0.0640136 0)
(2.0411 -0.0722331 0)
(2.03488 -0.0801191 0)
(2.02764 -0.0876743 0)
(2.02016 -0.094903 0)
(2.01112 -0.101719 0)
(2.00234 -0.108128 0)
(1.99145 -0.114023 0)
(1.98185 -0.119445 0)
(1.96901 -0.124251 0)
(1.95925 -0.128522 0)
(1.94403 -0.132064 0)
(1.93526 -0.135022 0)
(1.91674 -0.137152 0)
(1.91096 -0.138673 0)
(1.88714 -0.139311 0)
(2.08183 -0.0254842 0)
(2.08263 -0.0340466 0)
(2.08068 -0.0426744 0)
(2.07633 -0.0509546 0)
(2.07094 -0.0587823 0)
(2.06473 -0.0661993 0)
(2.0583 -0.0732975 0)
(2.05083 -0.08008 0)
(2.04317 -0.0865555 0)
(2.03397 -0.0926466 0)
(2.02509 -0.0983615 0)
(2.0141 -0.103604 0)
(2.00447 -0.108417 0)
(1.99159 -0.11267 0)
(1.98188 -0.116447 0)
(1.96669 -0.119568 0)
(1.95802 -0.122178 0)
(1.9396 -0.124046 0)
(1.93392 -0.125387 0)
(1.9103 -0.125935 0)
(2.10589 -0.0237152 0)
(2.10586 -0.0312884 0)
(2.10353 -0.0389602 0)
(2.09906 -0.0463478 0)
(2.09359 -0.0533381 0)
(2.08721 -0.0599538 0)
(2.08059 -0.0662734 0)
(2.07289 -0.0722991 0)
(2.06505 -0.0780421 0)
(2.05567 -0.0834333 0)
(2.04667 -0.0884828 0)
(2.03556 -0.0931036 0)
(2.02587 -0.0973393 0)
(2.01292 -0.101072 0)
(2.00321 -0.104385 0)
(1.988 -0.107113 0)
(1.97939 -0.109397 0)
(1.961 -0.111021 0)
(1.95538 -0.112192 0)
(1.93187 -0.112655 0)
(2.12834 -0.0216944 0)
(2.12753 -0.028305 0)
(2.12481 -0.0350326 0)
(2.1202 -0.0415298 0)
(2.11463 -0.0476824 0)
(2.1081 -0.0535 0)
(2.10128 -0.0590494 0)
(2.09337 -0.0643318 0)
(2.08535 -0.0693597 0)
(2.07579 -0.0740716 0)
(2.06667 -0.0784789 0)
(2.05543 -0.0825034 0)
(2.04567 -0.0861881 0)
(2.03262 -0.0894271 0)
(2.0229 -0.0923002 0)
(2.00763 -0.0946585 0)
(1.99904 -0.0966348 0)
(1.98063 -0.0980296 0)
(1.97506 -0.0990417 0)
(1.95158 -0.0994243 0)
(2.14877 -0.019423 0)
(2.14725 -0.0250966 0)
(2.14415 -0.0308934 0)
(2.13938 -0.0365051 0)
(2.13371 -0.0418225 0)
(2.12703 -0.0468469 0)
(2.12004 -0.0516343 0)
(2.11193 -0.0561855 0)
(2.10373 -0.060513 0)
(2.09401 -0.0645628 0)
(2.08477 -0.0683468 0)
(2.07339 -0.0717957 0)
(2.06355 -0.0749504 0)
(2.0504 -0.0777171 0)
(2.04064 -0.0801707 0)
(2.0253 -0.0821777 0)
(2.01672 -0.083862 0)
(1.99827 -0.0850414 0)
(1.99272 -0.0859025 0)
(1.96924 -0.0862128 0)
(2.16686 -0.0169112 0)
(2.1647 -0.0216716 0)
(2.16126 -0.026551 0)
(2.15633 -0.0312839 0)
(2.15056 -0.035771 0)
(2.14375 -0.0400081 0)
(2.13659 -0.0440417 0)
(2.12829 -0.0478724 0)
(2.11994 -0.0515119 0)
(2.11006 -0.0549141 0)
(2.10071 -0.0580902 0)
(2.08921 -0.0609805 0)
(2.07929 -0.0636222 0)
(2.06603 -0.0659343 0)
(2.05623 -0.0679844 0)
(2.04081 -0.069656 0)
(2.03222 -0.0710607 0)
(2.0137 -0.0720368 0)
(2.00817 -0.0727538 0)
(1.98465 -0.0729992 0)
(2.18236 -0.0141751 0)
(2.17965 -0.0180437 0)
(2.17591 -0.0220189 0)
(2.17084 -0.0258805 0)
(2.16497 -0.0295425 0)
(2.15803 -0.0329988 0)
(2.15073 -0.0362866 0)
(2.14227 -0.0394067 0)
(2.13377 -0.042369 0)
(2.12376 -0.0451358 0)
(2.11429 -0.0477166 0)
(2.10268 -0.0500625 0)
(2.09268 -0.0522049 0)
(2.07933 -0.054077 0)
(2.06948 -0.0557366 0)
(2.05398 -0.057086 0)
(2.04538 -0.0582213 0)
(2.02679 -0.0590043 0)
(2.02127 -0.0595829 0)
(1.9977 -0.059771 0)
(2.19509 -0.0112469 0)
(2.19193 -0.0142422 0)
(2.18792 -0.0173237 0)
(2.18272 -0.0203194 0)
(2.17676 -0.0231603 0)
(2.16971 -0.0258408 0)
(2.16228 -0.0283892 0)
(2.15369 -0.0308067 0)
(2.14507 -0.0331005 0)
(2.13493 -0.0352419 0)
(2.12537 -0.0372377 0)
(2.11366 -0.0390506 0)
(2.10359 -0.0407046 0)
(2.09015 -0.0421487 0)
(2.08026 -0.0434278 0)
(2.06468 -0.0444662 0)
(2.05606 -0.0453399 0)
(2.03741 -0.0459392 0)
(2.03189 -0.0463838 0)
(2.00826 -0.0465214 0)
(2.20487 -0.00817184 0)
(2.20135 -0.0103098 0)
(2.19713 -0.0125061 0)
(2.19182 -0.0146393 0)
(2.18578 -0.0166606 0)
(2.17864 -0.0185677 0)
(2.17111 -0.02038 0)
(2.1624 -0.0221 0)
(2.15369 -0.0237308 0)
(2.14345 -0.0252541 0)
(2.13382 -0.0266715 0)
(2.12201 -0.0279604 0)
(2.11189 -0.0291331 0)
(2.09838 -0.0301594 0)
(2.08845 -0.0310643 0)
(2.07281 -0.0318021 0)
(2.06417 -0.0324183 0)
(2.04546 -0.0328433 0)
(2.03993 -0.0331552 0)
(2.01626 -0.0332499 0)
(2.21151 -0.00489984 0)
(2.20776 -0.00621 0)
(2.20339 -0.00754203 0)
(2.198 -0.00882808 0)
(2.19191 -0.0100412 0)
(2.1847 -0.0111846 0)
(2.17709 -0.0122688 0)
(2.1683 -0.0132996 0)
(2.15951 -0.0142739 0)
(2.1492 -0.0151873 0)
(2.13951 -0.0160322 0)
(2.12765 -0.0168059 0)
(2.11748 -0.0175023 0)
(2.10392 -0.0181204 0)
(2.09396 -0.0186541 0)
(2.07827 -0.019102 0)
(2.06962 -0.0194604 0)
(2.05087 -0.0197231 0)
(2.04534 -0.0198993 0)
(2.02163 -0.0199607 0)
(2.21482 -0.00147213 0)
(2.21096 -0.00195598 0)
(2.20654 -0.00243331 0)
(2.20112 -0.0028856 0)
(2.195 -0.00330627 0)
(2.18775 -0.00369958 0)
(2.18011 -0.00406922 0)
(2.17127 -0.00441971 0)
(2.16245 -0.00474848 0)
(2.1521 -0.00505727 0)
(2.14238 -0.00534008 0)
(2.13049 -0.00560121 0)
(2.1203 -0.00583235 0)
(2.10671 -0.00604173 0)
(2.09673 -0.00621676 0)
(2.08102 -0.00637032 0)
(2.07235 -0.00648519 0)
(2.05359 -0.006578 0)
(2.04805 -0.00663172 0)
(2.02433 -0.00665585 0)
(1.88746 0.155163 -4.53902e-22)
(1.90647 0.134655 0)
(1.91853 0.1134 3.13436e-22)
(1.92599 0.091586 1.00208e-20)
(1.92569 0.0694233 -2.86929e-20)
(1.92357 0.0479383 0)
(1.91321 0.0256748 -3.53327e-20)
(1.89102 0.00626735 0)
(1.88339 -0.016391 -4.15787e-20)
(1.74953 -0.0411346 6.49981e-22)
(1.90312 0.139993 1.98867e-23)
(1.92023 0.122279 -1.72619e-22)
(1.93165 0.103514 1.72969e-22)
(1.93714 0.085327 -1.90231e-21)
(1.93991 0.065493 9.79794e-21)
(1.93137 0.0476892 7.83788e-22)
(1.93711 0.0276514 0)
(1.89772 0.00944686 3.14693e-20)
(1.92984 -0.00697868 0)
(1.82928 -0.0330378 3.73633e-20)
(1.92382 0.124826 1.42322e-22)
(1.93685 0.109352 0)
(1.94939 0.0923493 1.98451e-22)
(1.94887 0.0764132 -1.98823e-21)
(1.95811 0.0588813 -1.05934e-20)
(1.93876 0.0425635 0)
(1.95738 0.0265022 -2.35002e-20)
(1.90961 0.00745637 -3.21952e-20)
(1.94354 -0.00424736 0)
(1.87918 -0.027558 -3.69835e-20)
(1.9472 0.111514 -1.54909e-22)
(1.95579 0.0975067 -1.40831e-22)
(1.97059 0.0826136 0)
(1.96402 0.0678099 -6.72345e-21)
(1.97809 0.0532429 -5.51001e-22)
(1.95285 0.0370013 1.20863e-21)
(1.97295 0.0246386 2.29019e-20)
(1.93059 0.00568851 7.55454e-22)
(1.95097 -0.00439473 2.6459e-20)
(1.90989 -0.0234344 0)
(1.97157 0.0996319 0)
(1.97701 0.0866942 1.06989e-22)
(1.99284 0.0741758 8.45318e-22)
(1.98368 0.0600492 -4.35941e-22)
(1.99788 0.0482764 3.34853e-22)
(1.97401 0.0324682 5.57067e-22)
(1.98774 0.0222224 1.66469e-20)
(1.9554 0.00517487 1.38577e-21)
(1.96374 -0.00499123 -3.76323e-21)
(1.93222 -0.0207509 -2.58939e-20)
(1.99584 0.0888939 6.09274e-22)
(2.0001 0.0768982 1.30957e-23)
(2.01484 0.0663855 -5.71763e-22)
(2.0066 0.0531187 -5.97748e-23)
(2.0176 0.0431641 4.29515e-21)
(1.9986 0.0287001 0)
(2.00526 0.0191621 -1.83727e-20)
(1.98021 0.00461129 5.57435e-22)
(1.98236 -0.00587802 -4.32574e-20)
(1.95313 -0.0195048 4.82786e-20)
(2.01967 0.0790339 -6.12271e-22)
(2.0241 0.068096 -8.09668e-22)
(2.03654 0.0589622 -1.02578e-22)
(2.03068 0.0469406 1.0624e-21)
(2.03809 0.037908 -1.04835e-21)
(2.02355 0.0252374 4.79925e-21)
(2.02601 0.015865 -4.71612e-22)
(2.0045 0.00339599 1.01942e-21)
(2.00462 -0.00695618 1.94978e-20)
(1.9758 -0.019074 -2.24185e-20)
(2.04299 0.069926 0)
(2.04795 0.0601737 1.94365e-21)
(2.0582 0.0519525 -9.29031e-23)
(2.05441 0.0413623 -1.14293e-21)
(2.05951 0.0328728 -1.11061e-21)
(2.04771 0.0219 -8.1315e-21)
(2.04867 0.01282 4.72471e-21)
(2.02887 0.00188261 0)
(2.02874 -0.00785649 0)
(2.00071 -0.0188296 0)
(2.0657 0.0615446 0)
(2.07096 0.05298 -2.20977e-21)
(2.07968 0.0454759 -1.10309e-22)
(2.07717 0.0362436 -8.25832e-23)
(2.08126 0.028303 -1.97933e-21)
(2.07102 0.0187222 3.87653e-21)
(2.07182 0.0102304 -5.57389e-21)
(2.05345 0.00046043 3.17227e-22)
(2.05346 -0.00846533 0)
(2.02703 -0.0185226 -7.23358e-21)
(2.08753 0.0538705 1.04915e-22)
(2.0928 0.0463917 1.30487e-21)
(2.10059 0.0395804 1.63012e-21)
(2.09881 0.0315176 4.70291e-23)
(2.10257 0.0242436 2.36675e-23)
(2.09351 0.0157809 1.82057e-21)
(2.09448 0.0080523 -3.4055e-21)
(2.0778 -0.000761577 2.51972e-22)
(2.07784 -0.00885845 0)
(2.0537 -0.018101 1.32908e-20)
(2.10817 0.046856 0)
(2.11329 0.0403327 1.64026e-21)
(2.12048 0.0342385 3.66594e-22)
(2.11923 0.0271691 0)
(2.12286 0.0206422 0)
(2.115 0.0131202 -1.52899e-21)
(2.11607 0.00619791 2.85593e-21)
(2.10135 -0.00176873 2.63418e-22)
(2.10127 -0.00905198 -9.84982e-23)
(2.07989 -0.0175041 -6.2272e-21)
(2.12732 0.0404316 0)
(2.1323 0.0347546 -3.26363e-21)
(2.13898 0.0293895 -2.52241e-21)
(2.1383 0.0231934 2.42926e-22)
(2.14176 0.017435 -1.23157e-22)
(2.1352 0.0107586 6.6535e-23)
(2.13623 0.00463408 -2.09238e-22)
(2.12364 -0.00252446 -2.12888e-21)
(2.12335 -0.00899859 -3.39257e-22)
(2.10493 -0.0166605 1.30894e-22)
(2.14478 0.0345211 0)
(2.14968 0.0296153 1.8073e-21)
(2.15588 0.0249694 -1.39756e-22)
(2.1558 0.0195764 1.386e-22)
(2.15904 0.0145749 0)
(2.15383 0.00870199 0)
(2.15472 0.00335769 0)
(2.1443 -0.00299865 2.46834e-21)
(2.14373 -0.00867281 -2.69347e-21)
(2.12829 -0.0155363 0)
(2.16038 0.0290511 0)
(2.16527 0.024869 1.25105e-21)
(2.17101 0.0209196 1.33156e-21)
(2.17155 0.0162919 1.28374e-21)
(2.17454 0.0120247 -2.00979e-22)
(2.17065 0.00693951 5.71636e-22)
(2.17136 0.00235576 5.83145e-23)
(2.163 -0.00319457 0)
(2.16215 -0.00808596 5.08471e-22)
(2.14953 -0.0141325 2.95487e-21)
(2.17403 0.0239541 -3.40205e-22)
(2.17895 0.0204659 -1.03638e-21)
(2.18427 0.0171872 -1.72892e-21)
(2.18542 0.0133041 -9.12114e-22)
(2.18815 0.00974714 0)
(2.18547 0.00544438 -6.39778e-22)
(2.18599 0.00160006 -1.41837e-23)
(2.17952 -0.00313656 2.25172e-23)
(2.17839 -0.00726226 1.28242e-21)
(2.16833 -0.0124646 -4.00843e-21)
(2.18568 0.0191688 3.41952e-22)
(2.19064 0.016356 -8.82436e-22)
(2.19558 0.0137245 6.31435e-22)
(2.19728 0.0105742 -1.29053e-21)
(2.19976 0.00770486 0)
(2.19816 0.00418306 0)
(2.19848 0.00105875 5.52885e-24)
(2.19366 -0.00285252 1.81311e-22)
(2.19227 -0.00622567 7.2134e-22)
(2.18445 -0.0105523 1.15454e-21)
(2.19528 0.0146407 0)
(2.20027 0.012488 1.39226e-21)
(2.20489 0.0104839 -4.18361e-22)
(2.20704 0.00805784 1.20443e-21)
(2.20931 0.00585559 2.79618e-22)
(2.20859 0.00311434 -1.01542e-22)
(2.20874 0.000692942 1.27677e-22)
(2.20528 -0.00238001 -1.57487e-22)
(2.20367 -0.00501178 0)
(2.19769 -0.00843127 0)
(2.20274 0.01031 0)
(2.20775 0.00882278 5.9683e-22)
(2.21211 0.00743765 -9.17501e-22)
(2.21459 0.00573142 0)
(2.21668 0.00417925 -5.06706e-22)
(2.21664 0.00221598 -1.18907e-22)
(2.21665 0.000480649 -2.2368e-22)
(2.21423 -0.00174887 1.54332e-23)
(2.21244 -0.00365315 1.81522e-23)
(2.20788 -0.00614906 -3.21176e-23)
(2.20795 0.00616513 0)
(2.21293 0.00534223 -5.99695e-22)
(2.21708 0.00457961 -4.51818e-22)
(2.21977 0.00360468 5.22205e-22)
(2.22173 0.00270669 1.99709e-22)
(2.22214 0.00153389 1.72018e-22)
(2.22204 0.00048372 3.97044e-22)
(2.22033 -0.000891211 -1.0917e-22)
(2.2184 -0.00207792 -3.04314e-24)
(2.2148 -0.00364174 0)
(2.21063 0.00193228 0)
(2.21559 0.00178169 2.77106e-22)
(2.21963 0.00164513 -2.47792e-22)
(2.22241 0.00141655 2.12913e-22)
(2.22429 0.00118856 0)
(2.22492 0.000838513 -1.72877e-22)
(2.22475 0.000502062 6.5164e-23)
(2.22339 2.82314e-05 -7.18474e-24)
(2.22137 -0.000405697 0)
(2.21824 -0.000986944 0)
(1.29302 0.320766 0)
(1.25189 0.351303 -4.73633e-20)
(1.22036 0.390858 0)
(1.19521 0.440841 -1.5596e-19)
(1.17304 0.500661 6.18468e-20)
(1.15208 0.572587 3.06512e-21)
(1.1308 0.658579 4.29154e-20)
(1.09128 0.749256 -1.08634e-20)
(0.956713 0.778107 0)
(0.557734 0.497118 3.05422e-20)
(1.37055 0.322558 8.45867e-20)
(1.33272 0.361103 4.73614e-20)
(1.30658 0.399466 -4.20756e-20)
(1.28615 0.447758 5.26992e-20)
(1.26893 0.506897 -3.82415e-20)
(1.25459 0.578097 1.06151e-20)
(1.24151 0.662589 -4.63716e-20)
(1.20863 0.749368 -8.38368e-20)
(1.0679 0.770114 -2.21213e-20)
(0.620359 0.480609 -4.30606e-20)
(1.44517 0.318812 -3.47283e-20)
(1.41398 0.359465 3.53708e-20)
(1.39257 0.397178 4.20737e-20)
(1.37554 0.4446 4.20191e-20)
(1.36258 0.502986 4.13823e-20)
(1.35457 0.57269 3.96899e-20)
(1.34901 0.65411 1.23879e-20)
(1.32087 0.734196 2.96428e-20)
(1.17063 0.744322 2.71108e-21)
(0.672569 0.450298 -2.89403e-21)
(1.52 0.311956 6.95089e-20)
(1.49418 0.352142 -3.53689e-20)
(1.47613 0.388325 0)
(1.46179 0.433945 0)
(1.4527 0.490285 0)
(1.45041 0.557101 2.00589e-20)
(1.45106 0.633697 -9.35422e-21)
(1.42467 0.704472 0)
(1.26044 0.7015 -5.88727e-21)
(0.709224 0.406953 1.53493e-20)
(1.5918 0.301478 -9.66182e-21)
(1.57009 0.339731 4.14614e-20)
(1.55477 0.373947 0)
(1.54306 0.417026 0)
(1.53764 0.470047 6.9867e-21)
(1.54032 0.532567 4.22175e-21)
(1.54534 0.602836 1.16062e-20)