/*--------------------------------*- C++ -*----------------------------------*\
| =========                 |                                                 |
| \\      /  F ield         | OpenFOAM: The Open Source CFD Toolbox           |
|  \\    /   O peration     | Version:  4.1                                   |
|   \\  /    A nd           | Web:      www.OpenFOAM.org                      |
|    \\/     M anipulation  |                                                 |
\*---------------------------------------------------------------------------*/
FoamFile
{
    version     2.0;
    format      ascii;
    class       surfaceScalarField;
    location    "11.6";
    object      phi;
}
// * * * * * * * * * * * * * * * * * * * * * * * * * * * * * * * * * * * * * //

dimensions      [0 3 -1 0 0 0 0];

internalField   nonuniform List<scalar> 
3890
(
0.000242798
0.00172262
-0.00196542
0.00189192
0.000342054
-0.00199117
0.00554745
-0.00419224
0.000536708
0.0115269
-0.0108996
0.00492012
0.0197538
-0.0188166
0.0105897
0.0297796
-0.0269974
0.0169716
0.0409428
-0.034697
0.0235338
0.0526757
-0.0414601
0.0297272
0.064386
-0.0474152
0.035705
-0.051392
0.0403082
0.0754698
0.000502203
0.00122042
0.00302135
-0.0021771
0.00816753
-0.00933841
0.0159823
-0.0187144
0.0258763
-0.0287105
0.0369132
-0.0380342
0.0481756
-0.0459594
0.0590126
-0.0522971
0.0687914
-0.057194
-0.0606071
0.0780065
0.000862338
0.00035808
0.00444869
-0.00576345
0.0111675
-0.0160572
0.0204579
-0.0280048
0.0310888
-0.0393415
0.0418145
-0.0487599
0.0517833
-0.0559283
0.0605964
-0.0611102
0.0682405
-0.064838
-0.0675085
0.0751419
0.00131666
-0.000958579
0.00607764
-0.0105244
0.0141418
-0.0241214
0.0241072
-0.0379703
0.0342989
-0.0495332
0.0435828
-0.0580438
0.0515245
-0.0638699
0.0582168
-0.0678025
0.0639896
-0.0706108
-0.0727864
0.0692674
0.00184766
-0.00280624
0.00772781
-0.0164046
0.0165646
-0.0329582
0.0262091
-0.0476147
0.0350225
-0.0583466
0.0423608
-0.0653821
0.0483151
-0.0698241
0.053303
-0.0727904
0.0577658
-0.0750736
-0.0771461
0.0621255
0.00241807
-0.00522431
0.00914498
-0.0231315
0.0179771
-0.0417903
0.0264814
-0.056119
0.0334942
-0.0653594
0.0389458
-0.0708337
0.0432754
-0.0741538
0.0469934
-0.0765084
0.0504912
-0.0785714
-0.0806268
0.0539719
0.00296253
-0.00818685
0.0100722
-0.0302412
0.0181751
-0.0498932
0.0251018
-0.0630457
0.0303106
-0.0705682
0.0341499
-0.0746729
0.0371902
-0.0771942
0.039893
-0.0792112
0.0425231
-0.0812014
-0.0833035
0.0451998
0.00339531
-0.0115822
0.0103451
-0.037191
0.0172323
-0.0567804
0.0224736
-0.0682871
0.0260596
-0.0741542
0.0285591
-0.0771724
0.0305329
-0.0791679
0.0323357
-0.0810141
0.0341306
-0.0829963
-0.085136
0.0359631
0.00363474
-0.0152169
0.0099326
-0.0434888
0.0153799
-0.0622277
0.0190152
-0.0719223
0.0211962
-0.0763353
0.0225633
-0.0785395
0.0235966
-0.0802011
0.0245437
-0.0819613
0.0254873
-0.0839399
-0.0860917
0.0264429
0.00363263
-0.0188495
0.00893755
-0.0487937
0.0128959
-0.066186
0.0150774
-0.0741038
0.0160477
-0.0773056
0.0164223
-0.0789142
0.0165788
-0.0803575
0.0166775
-0.08206
0.0167576
-0.08402
0.0168175
-0.0861515
-0.000563454
0.000563454
-0.00171604
0.00115258
-0.0031898
0.00147377
-0.00483768
0.00164788
-0.00658088
0.0017432
-0.00838428
0.00180339
-0.0102403
0.00185607
-0.0121585
0.00191813
-0.0141614
0.00200294
0.00212639
-0.0162878
-0.000501556
0.00106501
-0.00153404
0.00218507
-0.00285051
0.00279024
-0.00430302
0.00310039
-0.00580639
0.00324657
-0.00731615
0.00331315
-0.00881475
0.00335467
-0.0103037
0.00340703
-0.0117988
0.00349809
0.00366649
-0.0133389
-0.000393704
0.00145872
-0.00121729
0.00300866
-0.00225131
0.00382426
-0.00335211
0.00420119
-0.00442648
0.00432093
-0.00541459
0.00430126
-0.00628031
0.00422039
-0.00700859
0.00413531
-0.00760332
0.00409281
0.00414692
-0.00808375
-0.000270052
0.00172877
-0.000838842
0.00357745
-0.00151884
0.00450426
-0.002174
0.00485635
-0.00270607
0.004853
-0.00304085
0.00463605
-0.0031197
0.00429924
-0.00289966
0.00391527
-0.00236035
0.00355351
0.00333538
-0.0015488
-0.000160182
0.00188895
-0.000474954
0.00389222
-0.000780635
0.00480994
-0.000949492
0.00502521
-0.000882018
0.00478552
-0.000494578
0.00424861
0.000289534
0.00351513
0.00154423
0.00266057
0.00333635
0.00176138
0.000989682
0.00568205
-8.43087e-05
0.00197326
-0.000175256
0.00398317
-0.000112775
0.00474746
0.000231595
0.00468084
0.000964663
0.00405245
0.00218067
0.0030326
0.0039704
0.00172541
0.00641965
0.000211322
0.00961895
-0.00143791
-0.00319387
0.0138025
-4.6472e-05
0.00201973
5.75629e-05
0.00387914
0.000496788
0.00430824
0.00142851
0.00374912
0.00298536
0.00249561
0.00528641
0.00073155
0.00843326
-0.00142144
0.0125046
-0.00385998
0.0175228
-0.00645615
-0.00964195
0.0239709
-3.09062e-05
0.00205064
0.000273386
0.00357485
0.00116716
0.00341447
0.00286336
0.00205291
0.00554505
-0.000186074
0.00936516
-0.00308856
0.0144074
-0.00646367
0.0206755
-0.0101281
0.0280855
-0.0138661
-0.0186076
0.0370512
3.93516e-06
0.0020467
0.000579638
0.00299915
0.00210207
0.00189203
0.00486391
-0.000708927
0.00909644
-0.0044186
0.0149123
-0.00890444
0.0222973
-0.0138487
0.031049
-0.0188797
0.0410509
-0.023868
-0.0293808
0.0518241
8.12852e-05
0.00108926
0.003518
0.00772919
0.0139003
0.0219674
0.0316525
0.0424999
0.0543369
0.0652642
-0.0176768
0.00138895
-0.0190601
0.00138337
-0.0204094
0.00134924
-0.0217147
0.00130531
-0.0229669
0.00125223
-0.0241559
0.00118903
-0.0252712
0.00111526
-0.0263021
0.00103087
-0.0272383
0.000936233
-0.0280705
0.000832192
-0.0287906
0.000720101
-0.0293925
0.000601891
-0.0298726
0.000480145
-0.0302308
0.000358162
-0.0304708
0.00024002
-0.0306015
0.00013067
-0.0306373
3.58402e-05
-0.0305962
-4.11514e-05
-0.0304969
-9.92973e-05
-0.000140616
-0.0145528
0.00260286
-0.015786
0.00261656
-0.017012
0.00257527
-0.0182227
0.00251597
-0.0194096
0.00243913
-0.0205627
0.00234214
-0.0216711
0.00222364
-0.0227233
0.00208306
-0.0237076
0.00192055
-0.0246125
0.00173708
-0.0254269
0.00153459
-0.0261412
0.00131612
-0.0267471
0.00108606
-0.0272393
0.000850352
-0.0276161
0.000616802
-0.0278806
0.000395208
-0.0280419
0.000197191
-0.0281184
3.53022e-05
-0.0281338
-8.39355e-05
-0.000157959
-0.00895637
0.00347548
-0.00987633
0.00353651
-0.0108293
0.00352827
-0.0118116
0.0034982
-0.0128172
0.00344474
-0.013838
0.00336301
-0.0148643
0.00324994
-0.0158851
0.00310378
-0.0168882
0.0029237
-0.0178609
0.00270974
-0.0187894
0.00246307
-0.0196595
0.00218627
-0.0204572
0.00188372
-0.0211689
0.00156212
-0.0217833
0.00123117
-0.0222922
0.000904099
-0.0226928
0.000597795
-0.0229919
0.000334366
-0.0232166
0.00014081
3.32829e-05
-0.00191472
0.0038414
-0.00239076
0.00401255
-0.00293436
0.00407187
-0.00354009
0.00410392
-0.00421172
0.00411637
-0.00494702
0.00409831
-0.00573977
0.00404269
-0.00658238
0.00394639
-0.00746623
0.00380755
-0.00838114
0.00362465
-0.00931507
0.003397
-0.0102541
0.00312531
-0.0111825
0.00281205
-0.0120824
0.00246211
-0.0129346
0.0020833
-0.0137189
0.00168843
-0.0144162
0.00129507
-0.0150107
0.000928848
-0.0155068
0.000636926
0.00048282
0.00579205
0.00373139
0.0057724
0.0040322
0.00567449
0.00416978
0.00551049
0.00426792
0.00526593
0.00436094
0.00493391
0.00443032
0.00451554
0.00446106
0.00401306
0.00444887
0.00342863
0.00439198
0.0027656
0.00428768
0.00202936
0.00413325
0.00122739
0.00392728
0.000369557
0.00366989
-0.000531103
0.00336277
-0.00145843
0.00301062
-0.00239129
0.00262129
-0.00330381
0.00220759
-0.00416333
0.00178836
-0.00493018
0.00140378
0.00115668
0.014245
0.00328888
0.0145399
0.00373731
0.0147741
0.00393561
0.0149688
0.00407317
0.0150994
0.00423041
0.0151524
0.0043773
0.0151259
0.00448758
0.0150171
0.00455763
0.0148213
0.00458775
0.0145346
0.00457446
0.0141545
0.00451329
0.0136807
0.00440114
0.013114
0.00423659
0.0124572
0.00401948
0.0117162
0.00375172
0.0109
0.0034374
0.0100235
0.00308416
0.00911003
0.00270181
0.00820635
0.00230746
0.00198533
0.0244166
0.00284313
0.0247593
0.0033946
0.025094
0.00360099
0.0254383
0.0037288
0.0257557
0.00391305
0.0260342
0.00409877
0.0262724
0.00424937
0.026463
0.00436706
0.0265952
0.00445553
0.0266595
0.00451016
0.0266478
0.00452497
0.0265532
0.00449577
0.0263694
0.00442038
0.0260915
0.00429736
0.0257156
0.00412768
0.0252397
0.00391329
0.024663
0.00366079
0.0239886
0.00337621
0.0232215
0.0030746
0.00276524
0.0371672
0.00272707
0.0373193
0.00324252
0.0375674
0.00335287
0.0378688
0.00342747
0.0381792
0.00360258
0.038503
0.00377503
0.0388381
0.00391424
0.0391711
0.0040341
0.0394878
0.00413878
0.039777
0.00422098
0.0400279
0.00427404
0.0402305
0.00429317
0.0403747
0.00427619
0.0404519
0.00422017
0.0404526
0.00412694
0.0403706
0.00399528
0.0401948
0.00383662
0.0399249
0.00364616
0.0395313
0.0034682
0.00323375
0.0516504
0.00290072
0.0517136
0.00317937
0.0519881
0.00307835
0.0522949
0.00312069
0.052622
0.00327541
0.0529875
0.00340952
0.0533791
0.00352265
0.0537827
0.00363057
0.0541908
0.00373063
0.0545982
0.00381361
0.0549975
0.00387469
0.0553819
0.00390878
0.0557426
0.00391548
0.0560733
0.00388953
0.0563631
0.00383711
0.0566081
0.00375029
0.0567923
0.00365241
0.0569196
0.00351885
0.0569628
0.00342503
0.00327603
0.0655715
0.00259338
0.0662802
0.00247066
0.0668786
0.00247999
0.0674015
0.00259778
0.0679342
0.00274274
0.068466
0.00287765
0.0689872
0.00300146
0.0695033
0.00311448
0.0700198
0.00321412
0.0705398
0.00329367
0.0710627
0.00335175
0.0715894
0.00338209
0.0721163
0.00338862
0.0726433
0.00336248
0.0731625
0.00331788
0.0736753
0.00323755
0.0741686
0.00315908
0.0746469
0.00304053
0.0751007
0.00297124
0.00284927
0.0906613
0.00353518
-0.0916031
0.0896545
0.00347738
0.0887482
0.00338631
0.087989
0.00335702
0.0873612
0.00337056
0.0868384
0.0034004
0.0864014
0.00343847
0.0860389
0.00347702
0.0857411
0.00351188
0.0855002
0.00353459
0.0853062
0.00354577
0.0851525
0.00353578
0.0850287
0.00351242
0.0849299
0.00346125
0.084844
0.00340381
0.0847681
0.00331341
0.0846896
0.00323759
0.0846081
0.0031221
0.0845181
0.0030612
0.00294277
0.100683
0.0036669
-0.100815
0.100423
0.00373728
0.100085
0.00372399
0.0997548
0.00368763
0.0994561
0.00366921
0.0991879
0.00366867
0.0989484
0.0036779
0.0987396
0.00368586
0.0985605
0.00369097
0.0984103
0.00368479
0.0982843
0.00367175
0.0981805
0.00363964
0.0980917
0.00360121
0.0980164
0.00353657
0.0979456
0.00347457
0.0978796
0.00337944
0.0978088
0.00330835
0.0977371
0.00319385
0.0976575
0.00314073
0.00302511
0.107653
0.00378654
-0.107773
0.107629
0.00376142
0.107611
0.00374201
0.107596
0.00370278
0.107595
0.00367007
0.107611
0.00365316
0.107639
0.00364916
0.10768
0.00364555
0.107729
0.00364143
0.107787
0.00362666
0.107851
0.00360855
0.107918
0.00357242
0.107984
0.00353499
0.108048
0.0034721
0.108106
0.0034175
0.108155
0.00332951
0.108194
0.00327015
0.108222
0.00316595
0.108239
0.00312373
0.00301836
0.113061
0.00379003
-0.113064
0.113153
0.00366922
0.113287
0.00360832
0.113433
0.00355638
0.113592
0.00351068
0.113769
0.00347669
0.113961
0.0034572
0.114165
0.00344143
0.114377
0.00342937
0.114594
0.0034092
0.114814
0.00338944
0.115032
0.00335412
0.115245
0.00332149
0.115451
0.003266
0.115647
0.0032218
0.11583
0.00314701
0.115999
0.00310063
0.116152
0.00301359
0.116294
0.00298139
0.0028931
0.117739
0.00365391
-0.117603
0.117915
0.00349391
0.118126
0.00339682
0.118356
0.00332609
0.118599
0.00326781
0.118857
0.00321933
0.119129
0.00318485
0.119414
0.00315613
0.119709
0.00313459
0.12001
0.00310807
0.120315
0.00308502
0.120619
0.00304972
0.120921
0.00301973
0.121216
0.00297099
0.121503
0.00293444
0.121778
0.00287251
0.122042
0.00283594
0.12229
0.00276608
0.12253
0.00274109
0.00267137
0.122311
0.00344336
-0.1221
0.122533
0.00327135
0.122781
0.0031494
0.123047
0.00305951
0.123326
0.00298867
0.123617
0.00292855
0.12392
0.00288168
0.124235
0.00284137
0.124559
0.00281021
0.124891
0.00277699
0.125226
0.00274932
0.125563
0.00271283
0.1259
0.00268299
0.126232
0.00263885
0.12656
0.00260653
0.126878
0.00255452
0.12719
0.00252412
0.127488
0.00246793
0.127781
0.00244768
0.00239297
0.127083
0.00320105
-0.126841
0.127329
0.00302481
0.127591
0.0028883
0.127866
0.00278369
0.128153
0.00270169
0.12845
0.00263219
0.128756
0.00257565
0.129071
0.00252597
0.129395
0.00248628
0.129725
0.00244687
0.13006
0.00241434
0.130397
0.00237607
0.130735
0.00234508
0.13107
0.00230369
0.131403
0.00227338
0.131729
0.00222828
0.132052
0.00220157
0.132365
0.00215511
0.132675
0.00213791
0.00209368
0.132102
0.00293731
-0.131838
0.132364
0.00276319
0.132631
0.0026214
0.132906
0.00250823
0.13319
0.00241808
0.13348
0.00234163
0.133778
0.00227816
0.134082
0.00222175
0.134393
0.0021755
0.134708
0.00213118
0.135028
0.00209456
0.13535
0.00205466
0.135672
0.00202236
0.135993
0.00198272
0.136313
0.00195349
0.136628
0.00191318
0.136941
0.00188888
0.137247
0.0018492
0.137551
0.00183411
0.0017971
0.137267
0.00265385
-0.136983
0.137542
0.00248786
0.137816
0.00234762
0.138092
0.00223165
0.138373
0.00213731
0.138658
0.00205693
0.138947
0.0019895
0.139239
0.00192927
0.139536
0.00187902
0.139835
0.00183175
0.140137
0.00179255
0.14044
0.0017519
0.140743
0.00171901
0.141045
0.00168105
0.141345
0.00165291
0.141642
0.00161641
0.141937
0.00159413
0.142226
0.00155962
0.142514
0.00154627
0.00151484
0.142424
0.00235097
-0.142121
0.142716
0.00219618
0.143001
0.0020619
0.143285
0.00194802
0.143569
0.00185371
0.143853
0.00177289
0.144137
0.00170465
0.144423
0.00164363
0.14471
0.0015922
0.144997
0.00154434
0.145285
0.00150455
0.145573
0.00146465
0.145859
0.0014324
0.146143
0.00139684
0.146426
0.00137041
0.146704
0.00133775
0.146981
0.00131765
0.147253
0.00128795
0.147523
0.0012763
0.0012501
0.147437
0.00202644
-0.147113
0.147749
0.00188453
0.148051
0.00175944
0.148347
0.00165182
0.14864
0.00156163
0.148928
0.00148395
0.149215
0.00141809
0.149499
0.00135929
0.149782
0.00130948
0.150063
0.00126357
0.150342
0.00122537
0.150619
0.00118805
0.150893
0.00115794
0.151164
0.00112599
0.151432
0.00110217
0.151696
0.0010741
0.151957
0.00105661
0.152213
0.0010322
0.152467
0.00102238
0.00100195
0.152238
0.00167946
-0.151892
0.15257
0.00155269
0.15289
0.00143987
0.1532
0.00134209
0.153502
0.0012596
0.153797
0.0011884
0.154087
0.00112792
0.154373
0.00107415
0.154653
0.00102855
0.15493
0.000987019
0.155203
0.000952473
0.155471
0.000919626
0.155736
0.000893123
0.155996
0.000866186
0.156252
0.000845917
0.156503
0.000823475
0.15675
0.000809086
0.156992
0.000790827
0.157231
0.000782995
0.000769211
0.156856
0.00131804
-0.156494
0.157199
0.00120916
0.157527
0.00111144
0.157843
0.00102639
0.158148
0.000954398
0.158444
0.000892403
0.158733
0.000839755
0.159013
0.00079337
0.159288
0.000754058
0.159556
0.000718892
0.159819
0.000689645
0.160076
0.000662826
0.160328
0.000641072
0.160574
0.000620302
0.160815
0.000604277
0.16105
0.000588318
0.161282
0.000577358
0.161507
0.000565954
0.16173
0.000560183
0.000553687
0.161383
0.000963886
-0.161029
0.161717
0.000874703
0.162035
0.0007939
0.162338
0.000723283
0.162629
0.000663415
0.162909
0.000612218
0.16318
0.000568876
0.163442
0.000531251
0.163697
0.000499416
0.163944
0.000471718
0.164185
0.000448636
0.164419
0.000428608
0.164648
0.000412108
0.16487
0.000397934
0.165088
0.000386343
0.1653
0.00037703
0.165508
0.000369474
0.165709
0.000364893
0.165908
0.000361075
0.000361668
0.165874
0.000648615
-0.165559
0.16617
0.000578807
0.166449
0.000514897
0.166713
0.000458779
0.166966
0.000411144
0.167207
0.000370873
0.167439
0.000336958
0.167662
0.000308156
0.167878
0.000283815
0.168086
0.000263481
0.168288
0.000246423
0.168484
0.000232853
0.168675
0.000221289
0.168859
0.00021311
0.16904
0.000205506
0.169215
0.000201981
0.169387
0.000197369
0.169554
0.000198505
0.169719
0.00019632
0.000202615
0.170217
0.000399169
-0.169967
0.170449
0.000346426
0.170666
0.000297765
0.17087
0.000254872
0.171063
0.000218415
0.171246
0.000188031
0.17142
0.000162584
0.171587
0.000141573
0.171747
0.000123804
0.171901
0.000109738
0.172049
9.77728e-05
0.172193
8.94089e-05
0.172332
8.18338e-05
0.172467
7.8172e-05
0.172599
7.36279e-05
0.172727
7.41618e-05
0.172852
7.17197e-05
0.172974
7.65453e-05
0.173095
7.55233e-05
8.51394e-05
0.174131
0.000223486
-0.173955
0.174292
0.000185116
0.17444
0.000149694
0.174576
0.000118492
0.174703
9.19999e-05
0.174821
7.02133e-05
0.174931
5.20252e-05
0.175035
3.7487e-05
0.175134
2.51541e-05
0.175228
1.596e-05
0.175317
7.97052e-06
0.175404
3.2529e-06
0.175487
-1.38051e-06
0.175567
-2.3163e-06
0.175646
-4.80668e-06
0.175722
-2.25112e-06
0.175797
-3.33069e-06
0.175871
2.82449e-06
0.175944
2.49224e-06
1.26827e-05
0.177311
0.000111558
-0.1772
0.177411
8.56519e-05
0.177499
6.20146e-05
0.177575
4.16133e-05
0.177643
2.44191e-05
0.177703
1.0335e-05
0.177756
-1.49666e-06
0.177804
-1.05333e-05
0.177848
-1.82804e-05
0.177888
-2.37376e-05
0.177924
-2.8596e-05
0.177958
-3.09397e-05
0.177991
-3.3581e-05
0.178021
-3.32465e-05
0.178051
-3.4466e-05
0.178081
-3.16544e-05
0.178109
-3.20203e-05
0.178139
-2.66237e-05
0.178168
-2.66334e-05
-1.83367e-05
0.179551
4.6132e-05
-0.179486
0.179606
3.11535e-05
0.179649
1.87549e-05
0.179682
8.65299e-06
0.179706
5.52248e-07
0.179723
-6.51316e-06
0.179733
-1.22846e-05
0.179739
-1.66281e-05
0.179741
-2.03654e-05
0.179741
-2.28857e-05
0.179737
-2.51662e-05
0.179732
-2.6077e-05
0.179726
-2.72441e-05
0.17972
-2.67664e-05
0.179712
-2.72305e-05
0.179706
-2.54726e-05
0.1797
-2.55389e-05
0.179695
-2.24349e-05
0.179691
-2.23604e-05
-1.77222e-05
0.180713
-0.180667
0.180744
0.180763
0.180772
0.180772
0.180766
0.180753
0.180737
0.180716
0.180694
0.180668
0.180642
0.180615
0.180588
0.180561
0.180536
0.18051
0.180488
0.180465
0.0896346
0.0156489
-0.088466
0.0908566
0.025221
0.092152
0.0346677
0.0934726
0.0438793
0.094858
0.0525865
0.0961659
0.0608176
0.0971713
0.068262
0.0978765
0.0744367
0.0952059
0.0806772
0.0790726
0.0922121
0.0145823
-0.0911455
0.093376
0.0240571
0.0946741
0.0333696
0.0960699
0.0424834
0.0975204
0.051136
0.0991743
0.0591637
0.100425
0.0670108
0.102292
0.0725701
0.102513
0.0804566
0.0807705
0.095051
0.0136099
-0.0940785
0.0961733
0.0229348
0.0974368
0.0321061
0.0989072
0.041013
0.100378
0.0496657
0.102253
0.0572885
0.10383
0.0654334
0.105851
0.0705491
0.107694
0.0786136
0.0806919
0.0980467
0.0127056
-0.0971425
0.0991675
0.021814
0.100427
0.0308469
0.101971
0.0394689
0.10353
0.0481064
0.105447
0.055372
0.107355
0.0635246
0.109237
0.0686677
0.111681
0.0761694
0.0793085
0.10112
0.0118403
-0.100255
0.102262
0.0206717
0.103579
0.0295299
0.10519
0.0378579
0.10692
0.0463768
0.108831
0.0534608
0.110996
0.0613603
0.112935
0.0667285
0.1155
0.0736045
0.0772051
0.104204
0.0109861
-0.10335
0.105375
0.0195003
0.106797
0.0281076
0.108489
0.0361665
0.110426
0.04444
0.11244
0.0514463
0.114813
0.0589871
0.117021
0.0645203
0.119635
0.0709911
0.0747398
0.107233
0.0101231
-0.10637
0.108443
0.0182909
0.109988
0.0265618
0.111801
0.0343544
0.113949
0.0422911
0.116195
0.0492007
0.118783
0.0563994
0.121331
0.0619722
0.124109
0.0682126
0.0720085
0.110159
0.00924239
-0.109278
0.111421
0.0170292
0.113088
0.024894
0.115061
0.0323814
0.117419
0.0399334
0.119955
0.0466645
0.122798
0.0535567
0.125702
0.059068
0.128792
0.0651226
0.0689621
0.112963
0.00834391
-0.112064
0.114287
0.0157051
0.116067
0.0231136
0.118216
0.0302333
0.120779
0.03737
0.123608
0.043835
0.126754
0.0504115
0.130032
0.0557899
0.133534
0.0616205
0.0655125
0.115671
0.00743228
-0.114759
0.117056
0.0143199
0.118936
0.0212337
0.121246
0.0279226
0.124009
0.0346079
0.127111
0.040733
0.130581
0.0469411
0.134242
0.0521291
0.138196
0.0576663
0.0615875
0.118351
0.0065165
-0.117436
0.119785
0.0128867
0.121747
0.0192717
0.124192
0.0254769
0.127135
0.0316655
0.130477
0.0373906
0.134256
0.0431621
0.138284
0.0481007
0.14268
0.0532706
0.057155
0.121107
0.00560809
-0.120199
0.122567
0.0114272
0.124589
0.0172498
0.127138
0.0229277
0.130231
0.0285728
0.133775
0.033846
0.137818
0.0391192
0.142177
0.0437418
0.146968
0.0484799
0.0522314
0.124033
0.00473049
-0.123155
0.125495
0.00996527
0.127554
0.0151908
0.13018
0.0203015
0.133391
0.0253615
0.137104
0.0301334
0.141362
0.0348612
0.146007
0.0390966
0.151132
0.0433547
0.0468694
0.127141
0.00391086
-0.126322
0.128587
0.00852014
0.130666
0.013111
0.133356
0.0176119
0.136667
0.0220502
0.14053
0.0262705
0.144974
0.0304178
0.149872
0.0341977
0.155286
0.0379407
0.0411271
0.130299
0.00316224
-0.129551
0.131721
0.00709796
0.13382
0.0110125
0.136575
0.0148566
0.139988
0.0186372
0.144004
0.0222545
0.148632
0.0257896
0.153777
0.0290532
0.159468
0.0322498
0.0350362
0.133243
0.00247587
-0.132557
0.134652
0.00568847
0.136781
0.00888355
0.139615
0.0120232
0.143143
0.0151088
0.147324
0.0180733
0.152152
0.0209616
0.157551
0.023655
0.16353
0.0262707
0.0285984
0.135721
0.0018269
-0.135072
0.137135
0.00427418
0.139308
0.00671045
0.142227
0.00910422
0.145878
0.0114579
0.150226
0.0137255
0.155257
0.0159308
0.160907
0.0180048
0.167174
0.0200039
0.0218172
0.13763
0.0011973
-0.137
0.139056
0.00284787
0.141273
0.0044933
0.144269
0.00610913
0.148027
0.00769895
0.15252
0.00923343
0.157727
0.0107237
0.163597
0.0121348
0.170114
0.0134864
0.0147319
0.138979
0.00058931
-0.138371
0.140407
0.00141973
0.142651
0.00225004
0.145695
0.00306462
0.149528
0.00386641
0.15412
0.004641
0.159451
0.00539252
0.165479
0.00610714
0.172176
0.00678874
0.00742265
0.139714
-0.139125
0.141134
0.143384
0.146448
0.150315
0.154956
0.160348
0.166456
0.173244
0.0422494
0.052402
-0.0464283
-0.048223
0.0362964
0.051197
-0.045244
0.0307221
0.0504423
-0.044868
0.0254379
0.0502294
-0.0449452
0.0203349
0.0504748
-0.0453718
0.0153517
0.051167
-0.0461838
0.0104778
0.0521765
-0.0473027
0.00584447
0.0523574
-0.047724
0.00195476
0.047476
-0.0435863
0.0272487
-0.0252939
0.0401981
0.0582658
-0.0460619
0.0344473
0.0569478
0.0289573
0.0559322
0.0237672
0.0554195
0.0188073
0.0554347
0.0140045
0.0559699
0.00935362
0.0568274
0.00502483
0.0566862
0.00155388
0.0509469
0.0288026
0.0372657
0.0637687
-0.0427686
0.0318221
0.0623914
0.0265594
0.0611949
0.0215594
0.0604195
0.0168062
0.0601878
0.0122483
0.0605278
0.00790105
0.0611747
0.00398141
0.0606058
0.00105037
0.053878
0.0298529
0.0332817
0.0688758
-0.0383888
0.0282684
0.0674047
0.0233893
0.0660741
0.018723
0.0650858
0.0142876
0.0646232
0.0100653
0.0647501
0.00611134
0.0651286
0.00271236
0.0640048
0.000442196
0.0561481
0.0302951
0.0283335
0.0735194
-0.0329771
0.0238174
0.0719209
0.0194323
0.0704591
0.0152269
0.0692913
0.0112271
0.068623
0.00744573
0.0685314
0.00398414
0.0685902
0.00120396
0.066785
-0.000238567
0.0575907
0.0300566
0.0224505
0.0775857
-0.0265168
0.0185283
0.0758431
0.0147363
0.0742511
0.0110976
0.07293
0.00763824
0.0720824
0.00440383
0.0717658
0.00155952
0.0714345
-0.000487289
0.0688318
-0.000929213
0.0580326
0.0291274
0.0157488
0.0809579
-0.019121
0.0125062
0.0790856
0.00938539
0.0773719
0.00639765
0.0759177
0.00356924
0.0749108
0.000980166
0.0743549
-0.00111679
0.0735315
-0.00217161
0.0698866
-0.00163783
0.0574988
0.0274895
0.00833322
0.0835383
-0.0109137
0.00584047
0.0815784
0.00347046
0.0797419
0.00121029
0.0781779
-0.000915849
0.077037
-0.00276686
0.0762059
-0.00399357
0.0747582
-0.00400226
0.0698953
-0.00232421
0.0558208
0.0251653
0.000295534
0.0853506
-0.00210777
-0.001345
0.0832189
-0.00291226
0.0813092
-0.00440721
0.0796729
-0.00576074
0.0783905
-0.006776
0.0772211
-0.00701456
0.0749968
-0.00582572
0.0687064
-0.00292987
0.0529249
0.0222355
-0.00808576
0.00728479
-0.00888687
-0.00963764
-0.0103223
-0.010846
-0.0109305
-0.0100375
-0.00751709
-0.00338592
0.0338745
0.00321251
-0.037087
0.0305365
0.00333802
0.0270531
0.00348337
0.0234036
0.00364954
0.0195595
0.00384406
0.0154861
0.00407339
0.0111608
0.00432532
0.00666543
0.00449536
0.00246749
0.00419794
0.00246749
0.0344311
0.00655351
-0.0377721
0.0309799
0.00678921
0.0273984
0.00706486
0.0236656
0.00738235
0.0197526
0.00775712
0.0156233
0.00820266
0.0112521
0.00869654
0.00671744
0.00902997
0.00249344
0.00842195
0.00496093
0.0354823
0.0101386
-0.0390675
0.0318159
0.0104556
0.0280476
0.0108332
0.0241558
0.0112742
0.0201104
0.0118024
0.015874
0.0124391
0.0114181
0.0131524
0.00681613
0.013632
0.00253253
0.0127056
0.00749346
0.0369089
0.0140564
-0.0408266
0.032948
0.0144165
0.0289232
0.014858
0.0248127
0.0153847
0.0205857
0.0160294
0.0162028
0.016822
0.0116317
0.0177235
0.00693909
0.0183246
0.00258129
0.0170634
0.0100748
0.0385473
0.0183608
-0.0428517
0.0342417
0.0187221
0.0299157
0.0191839
0.0255488
0.0197516
0.0211096
0.0204686
0.0165564
0.0213752
0.0118533
0.0224266
0.00706057
0.0231173
0.00262679
0.0214971
0.0127016
0.0402116
0.0230635
-0.0449144
0.0355446
0.0233891
0.0308992
0.0238294
0.0262606
0.0243902
0.0215985
0.0251307
0.0168691
0.0261046
0.0120336
0.0272621
0.00714761
0.0280034
0.00265354
0.0259912
0.0153551
0.0416859
0.0281529
-0.0467753
0.0366642
0.0284108
0.0317156
0.028778
0.0268273
0.0292786
0.0219613
0.0299967
0.0170716
0.0309942
0.0121208
0.0322129
0.00716519
0.0329589
0.00264509
0.0305113
0.0180002
0.0428586
0.0335992
-0.0483049
0.0374847
0.0337847
0.032253
0.0340097
0.0271441
0.0343874
0.0221061
0.0350347
0.0170899
0.0360104
0.01206
0.0372429
0.00707729
0.0379417
0.00258488
0.0350037
0.0205851
0.0433251
0.0395079
-0.0492338
0.0376792
0.0394305
0.0323034
0.0393855
0.0270704
0.0396205
0.0219266
0.0401785
0.0168429
0.0410941
0.0117922
0.0422935
0.00684622
0.0428877
0.00245678
0.0393931
0.0230418
0.0431944
-0.0501148
0.0373809
0.0318984
0.0265737
0.0213804
0.0162907
0.0112815
0.00644523
0.00225208
0.0407554
-0.000113264
0.0408677
-0.000112268
0.0409772
-0.000109514
0.0410794
-0.000102268
0.0411705
-9.11035e-05
0.0412467
-7.61743e-05
0.0413038
-5.70568e-05
0.0413367
-3.29182e-05
0.0413376
-9.09657e-07
0.0413084
2.92045e-05
0.0412408
6.755e-05
0.0411271
0.000113756
0.0409583
0.000168764
0.0407244
0.000233968
0.0404132
0.000311158
0.0400107
0.000402521
0.0394998
0.000510849
0.0388604
0.000639414
0.038068
0.000792368
0.000981045
0.0415964
-0.000227354
0.041708
-0.000223875
0.0418152
-0.000216714
0.0419145
-0.000201535
0.0420023
-0.000178942
0.0420749
-0.000148773
0.0421279
-0.000110095
0.0421562
-6.12136e-05
0.0421527
2.62759e-06
0.0421184
6.35278e-05
0.0420446
0.000141273
0.0419236
0.000234762
0.0417465
0.000345933
0.0415028
0.000477622
0.0411805
0.000633428
0.0407654
0.0008177
0.0402402
0.00103606
0.0395846
0.00129494
0.0387745
0.00160252
0.00198343
0.04325
-0.000332549
0.043353
-0.000326892
0.0434519
-0.000315662
0.0435427
-0.000292332
0.0436215
-0.000257737
0.0436843
-0.000211547
0.0437265
-0.000152257
0.0437423
-7.70033e-05
0.0437289
1.60209e-05
0.0436813
0.000111095
0.0435926
0.000229943
0.0434547
0.000372669
0.0432585
0.000542195
0.0429933
0.000742778
0.0426469
0.000979849
0.0422047
0.00125991
0.0416493
0.00159144
0.0409603
0.00198398
0.0401139
0.00244886
0.00302987
0.0456558
-0.000417998
0.0457391
-0.000410168
0.0458184
-0.000395014
0.0458894
-0.000363369
0.0459477
-0.000316039
0.0459889
-0.00025267
0.0460079
-0.000171339
0.0459992
-6.82592e-05
0.0459636
5.16071e-05
0.0458903
0.000184367
0.0457732
0.00034711
0.045604
0.000541831
0.0453735
0.00077268
0.0450709
0.00104543
0.0446834
0.00136733
0.0441962
0.00174712
0.0435916
0.00219605
0.0428483
0.00272728
0.0419447
0.00335244
0.00414796
0.0487322
-0.000466748
0.0487785
-0.000456481
0.0488204
-0.000436954
0.0488536
-0.000396549
0.0488734
-0.000335793
0.0488748
-0.000254059
0.0488529
-0.000149492
0.0487963
-1.16899e-05
0.0487197
0.000128275
0.0486011
0.000302952
0.0484351
0.000513091
0.0482139
0.000763036
0.047928
0.00105857
0.0475661
0.0014073
0.0471154
0.00181805
0.0465602
0.00230232
0.045883
0.00287324
0.0450602
0.00355013
0.044075
0.0043376
0.00537125
0.0523853
-0.000454842
0.0523701
-0.000441281
0.0523487
-0.000415547
0.0523168
-0.000364658
0.0522695
-0.000288578
0.0522019
-0.000186451
0.0521053
-5.28666e-05
0.0519942
9.94118e-05
0.0518437
0.000278741
0.0516499
0.000496811
0.0514062
0.000756804
0.0511041
0.00106511
0.0507342
0.00142843
0.0502845
0.00185702
0.0497423
0.00236031
0.0490899
0.00295467
0.0483116
0.00365159
0.047378
0.00448373
0.0462824
0.00543318
0.00673928
0.0565193
-0.000349583
0.056409
-0.000330956
0.0562896
-0.000296119
0.0561589
-0.000234001
0.0560113
-0.000140938
0.0558308
-5.95403e-06
0.0556427
0.0001352
0.0554241
0.000318038
0.0551645
0.000538317
0.0548597
0.000801564
0.0545031
0.00111344
0.0540851
0.00148312
0.0535968
0.0019167
0.0530245
0.00242933
0.0523576
0.00302724
0.0515742
0.00373805
0.0506642
0.00456154
0.049585
0.00556298
0.0483446
0.00667356
0.00830857
0.0610455
-0.000106489
0.060797
-8.24818e-05
0.060532
-3.10949e-05
0.0602512
4.67941e-05
0.0599566
0.000153673
0.0596539
0.000296709
0.0593154
0.00047371
0.0589431
0.000690397
0.0585315
0.00094992
0.0580731
0.00125991
0.0575618
0.00162477
0.0569866
0.00205834
0.0563403
0.002563
0.0556047
0.00316495
0.0547736
0.00385826
0.0538148
0.00469687
0.0527363
0.00564011
0.0514716
0.00682762
0.0500609
0.00808427
0.0100646
0.065882
0.000321567
0.0654405
0.000359008
0.0649897
0.000419689
0.0645259
0.000510608
0.0640426
0.000636952
0.0635358
0.000803515
0.0629996
0.00100997
0.062429
0.001261
0.0618195
0.00155942
0.0611625
0.00191684
0.060453
0.00233434
0.0596777
0.00283358
0.0588343
0.00340638
0.0578989
0.00410035
0.0568753
0.00488191
0.0557032
0.00586899
0.0544238
0.00691951
0.0528892
0.00836222
0.0512853
0.00968812
0.0121161
0.0710341
0.00105238
0.0703337
0.00105938
0.0696343
0.00111917
0.0689216
0.00122328
0.068189
0.00136957
0.0674323
0.00156023
0.0666481
0.00179411
0.0658312
0.00207787
0.0649781
0.0024126
0.0640794
0.00281546
0.0631316
0.00328214
0.062119
0.00384624
0.0610448
0.00448058
0.0598776
0.00526753
0.0586489
0.00611059
0.0572828
0.0072351
0.0559007
0.00830166
0.0542218
0.010041
0.0526662
0.0112438
0.0146675
0.0706357
0.00102522
0.0706503
0.0010447
0.0706513
0.0011182
0.0706454
0.00122923
0.070634
0.00138097
0.0706174
0.00157676
0.0705994
0.00181214
0.070582
0.00209531
0.0705701
0.00242446
0.0705639
0.00282169
0.0705737
0.0032723
0.0705976
0.0038224
0.0706592
0.00441889
0.0707471
0.00517965
0.0709212
0.00593656
0.0711381
0.0070182
0.0715512
0.00788856
0.0720749
0.0095173
0.0731906
0.0101281
0.0126701
0.075188
0.0759983
0.000963013
0.0760116
0.00103139
0.0760168
0.00111301
0.0760208
0.00122524
0.0760186
0.00138311
0.0760109
0.00158452
0.0760039
0.00181915
0.076001
0.00209812
0.0760074
0.00241809
0.0760243
0.00280476
0.0760614
0.00323519
0.0761218