/*--------------------------------*- C++ -*----------------------------------*\
| =========                 |                                                 |
| \\      /  F ield         | OpenFOAM: The Open Source CFD Toolbox           |
|  \\    /   O peration     | Version:  4.1                                   |
|   \\  /    A nd           | Web:      www.OpenFOAM.org                      |
|    \\/     M anipulation  |                                                 |
\*---------------------------------------------------------------------------*/
FoamFile
{
    version     2.0;
    format      ascii;
    class       volVectorField;
    location    "11.6";
    object      U;
}
// * * * * * * * * * * * * * * * * * * * * * * * * * * * * * * * * * * * * * //

dimensions      [0 1 -1 0 0 0 0];

internalField   nonuniform List<vector> 
2000
(
(-0.0289952 0.0246415 -9.71506e-21)
(-0.00986307 0.0291379 0)
(0.0751084 0.0209771 -2.1845e-20)
(0.213622 0.0101283 -1.13164e-20)
(0.392291 0.00293543 2.12098e-20)
(0.592921 0.00163742 3.24204e-20)
(0.797869 0.00677931 -1.02757e-20)
(0.986876 0.0140078 0)
(1.17354 0.0281962 9.82935e-21)
(1.29051 0.0391019 0)
(-0.0244254 0.0190475 4.98362e-21)
(0.0272463 0.0124178 -5.67576e-21)
(0.164023 0.000986568 1.86215e-20)
(0.36273 -0.00659377 2.99081e-20)
(0.595272 -0.00590406 -7.2469e-22)
(0.831248 0.00235801 -1.10653e-20)
(1.04728 0.0153689 9.62752e-21)
(1.23035 0.0282302 9.96964e-21)
(1.38224 0.0431445 -9.82872e-21)
(1.47573 0.0451789 -1.91783e-20)
(-0.0135278 0.0116126 -3.67614e-21)
(0.0853842 -0.0057052 3.44335e-21)
(0.287172 -0.0156151 -9.2235e-21)
(0.54796 -0.0140756 -1.20917e-21)
(0.819387 -0.00194303 -9.88199e-21)
(1.06349 0.0156822 -1.00101e-20)
(1.26167 0.03352 -1.00362e-20)
(1.41138 0.0476577 -9.9693e-21)
(1.51957 0.0579512 -1.00354e-20)
(1.59623 0.0598346 1.00341e-20)
(0.00594125 0.00276051 -5.91407e-22)
(0.168214 -0.0224884 2.25273e-21)
(0.442461 -0.0240111 0)
(0.753064 -0.00855919 -9.81525e-21)
(1.03556 0.0147979 7.88314e-21)
(1.25819 0.0377416 0)
(1.41786 0.0554406 0)
(1.52625 0.0659916 0)
(1.60222 0.0719221 1.00358e-20)
(1.65236 0.070347 -2.05435e-20)
(0.0360924 -0.00639481 -3.05852e-22)
(0.276708 -0.0335785 -4.05421e-23)
(0.619589 -0.0196289 -1.92368e-21)
(0.954422 0.0105932 -4.21246e-21)
(1.21836 0.040832 -3.64234e-21)
(1.40079 0.063549 -4.32274e-21)
(1.51825 0.0770327 0)
(1.59441 0.0828886 -5.22007e-21)
(1.6483 0.0842053 2.74939e-20)
(1.69269 0.0799012 -3.71314e-20)
(0.0783843 -0.0139911 -2.75836e-21)
(0.407201 -0.0339214 1.50982e-21)
(0.801282 -0.000350763 3.95495e-21)
(1.13075 0.040887 -4.70956e-21)
(1.35656 0.0720676 1.16689e-20)
(1.49526 0.0903491 -3.21267e-21)
(1.57858 0.0982173 0)
(1.63356 0.0993832 5.22046e-21)
(1.67789 0.0969528 -5.4828e-21)
(1.71927 0.0916879 -2.48386e-20)
(0.132977 -0.0175785 0)
(0.550582 -0.0195893 0)
(0.969539 0.032813 1.30971e-21)
(1.27081 0.07889 -1.21924e-21)
(1.45205 0.106085 4.03432e-21)
(1.55286 0.117811 -3.78765e-21)
(1.61208 0.119817 -1.13667e-20)
(1.6553 0.116729 1.07441e-20)
(1.69513 0.111297 1.29793e-20)
(1.73632 0.104896 -6.18193e-21)
(0.198135 -0.0145774 2.53089e-21)
(0.694122 0.0106771 0)
(1.1119 0.0771115 1.02467e-21)
(1.37291 0.121929 -3.66254e-21)
(1.51188 0.141886 4.56893e-21)
(1.58339 0.146138 0)
(1.62723 0.142454 0)
(1.66441 0.135428 0)
(1.70306 0.127324 1.45515e-20)
(1.74478 0.119882 -1.38321e-20)
(0.270029 -0.00296504 -1.44381e-21)
(0.825308 0.05536 -2.74378e-22)
(1.22269 0.129494 -1.17977e-22)
(1.44013 0.168145 -6.411e-22)
(1.54315 0.178903 -5.63768e-22)
(1.59372 0.175423 -2.38871e-21)
(1.62849 0.166292 0)
(1.66314 0.155546 2.01021e-21)
(1.70169 0.145032 1.04208e-20)
(1.74381 0.135945 -7.87832e-21)
(0.343243 0.0181996 0)
(0.934991 0.111224 -7.43792e-22)
(1.3008 0.187047 0)
(1.47696 0.216104 1.07356e-22)
(1.5515 0.21663 1.14274e-22)
(1.58801 0.205474 1.46423e-21)
(1.61792 0.191094 0)
(1.65182 0.176712 -2.01041e-21)
(1.6908 0.163751 -2.13208e-21)
(1.73346 0.152492 -2.43992e-21)
(-0.00555949 0.00554152 0)
(-0.0233892 0.0108655 2.00175e-21)
(-0.0498488 0.0131162 0)
(-0.0764277 0.0138789 2.49964e-21)
(-0.101194 0.0139381 7.56109e-22)
(-0.123874 0.01375 -1.39457e-21)
(-0.144597 0.0135859 1.31334e-21)
(-0.163713 0.0135979 -1.19189e-21)
(-0.181735 0.013893 -1.99831e-23)
(-0.199436 0.0145688 -1.02294e-21)
(-0.00661235 0.0159557 6.43375e-21)
(-0.0243214 0.0314429 -3.99204e-21)
(-0.0489497 0.0380737 3.58221e-21)
(-0.0729345 0.040296 -1.66034e-21)
(-0.0945991 0.0403796 -7.55706e-21)
(-0.113703 0.0396701 2.82506e-21)
(-0.130379 0.0389849 0)
(-0.144925 0.0388142 1.18789e-21)
(-0.157733 0.0395093 1.09341e-21)
(-0.169923 0.0413729 0)
(-0.00856836 0.0245129 -4.29301e-21)
(-0.0261847 0.0487958 0)
(-0.0475406 0.0593774 -1.06477e-20)
(-0.0668044 0.062835 1.30626e-20)
(-0.0827652 0.0626807 -3.04031e-21)
(-0.0952938 0.0610487 0)
(-0.104552 0.0592853 0)
(-0.110795 0.058287 0)
(-0.114138 0.0587573 -8.66714e-21)
(-0.115915 0.0613081 8.23719e-21)
(-0.0111546 0.0304998 0)
(-0.0289301 0.0614803 7.56711e-21)
(-0.0461923 0.0751748 -1.39573e-20)
(-0.059275 0.0794352 6.46782e-21)
(-0.0676466 0.0786581 -5.91212e-21)
(-0.0714082 0.0755682 1.64997e-20)
(-0.0708091 0.0719317 -1.52387e-22)
(-0.0661651 0.0690405 -9.6068e-21)
(-0.057307 0.0681453 -8.83124e-21)
(-0.0444722 0.0708994 1.26337e-20)
(-0.0141128 0.0338314 -8.08534e-21)
(-0.0324114 0.0688763 1.47377e-20)
(-0.0452461 0.0843852 -5.89034e-23)
(-0.0511705 0.0887574 5.18975e-23)
(-0.0504965 0.08691 -5.87656e-21)
(-0.0436884 0.0819082 1.65569e-20)
(-0.0311491 0.0757184 0)
(-0.0133398 0.0698112 4.87976e-21)
(0.0101453 0.0660336 -4.62823e-21)
(0.0408287 0.0680877 1.68129e-20)
(-0.0172888 0.0349394 -1.50196e-22)
(-0.0362913 0.0711475 -1.44984e-20)
(-0.0443362 0.0867313 -6.76656e-21)
(-0.0419498 0.090239 -6.14809e-21)
(-0.030313 0.0868501 -5.88654e-21)
(-0.0103063 0.0797774 -5.51265e-21)
(0.0174563 0.0709787 0)
(0.0522078 0.0617709 -4.87949e-21)
(0.0941127 0.0540237 -1.43202e-20)
(0.149977 0.0541216 4.24119e-21)
(-0.0206361 0.034521 2.57274e-23)
(-0.0398656 0.0689846 -6.94541e-21)
(-0.0418826 0.0826229 0)
(-0.028779 0.0840364 1.26097e-20)
(-0.00244936 0.0786105 -1.16453e-20)
(0.0358619 0.0696547 0)
(0.0852799 0.0591445 0)
(0.144464 0.0481875 0)
(0.210416 0.036969 9.76902e-21)
(0.30497 0.0356584 1.77234e-20)
(-0.0240937 0.0332072 7.10623e-21)
(-0.0418042 0.0632503 -6.65662e-21)
(-0.0345986 0.0729004 -1.25655e-20)
(-0.00584571 0.0709616 2.03709e-22)
(0.0420928 0.0631161 -1.16314e-20)
(0.107379 0.0528331 -1.11768e-20)
(0.188253 0.0422372 -1.07456e-20)
(0.282255 0.0328315 -1.03518e-20)
(0.378541 0.0209031 -9.76795e-21)
(0.524943 0.0225638 9.83769e-21)
(-0.0272892 0.031243 1.9396e-20)
(-0.0398766 0.0545994 6.77314e-21)
(-0.0172934 0.0586139 2.51259e-20)
(0.0355981 0.0525842 1.21341e-20)
(0.115693 0.0426256 1.6857e-22)
(0.21932 0.0323146 1.13735e-20)
(0.341875 0.0238343 -1.06561e-20)
(0.477346 0.0191946 1.03506e-20)
(0.608876 0.0114725 -9.98842e-21)
(0.798586 0.0215884 1.92686e-20)
(-0.0293501 0.0285383 -1.26711e-20)
(-0.0306535 0.0432668 0)
(0.0168204 0.0408735 -1.20677e-20)
(0.10582 0.0312573 7.79041e-23)
(0.230456 0.0209016 3.759e-22)
(0.382119 0.0132026 -1.13055e-20)
(0.550722 0.0101091 3.18631e-20)
(0.722082 0.0114354 0)
(0.890541 0.0138598 9.98697e-21)
(1.07589 0.0317498 0)
(-0.21734 0.015461 0)
(-0.23646 0.0154138 8.75294e-22)
(-0.255308 0.0150767 -1.70916e-21)
(-0.27379 0.014636 7.32717e-22)
(-0.291834 0.0140968 0)
(-0.309301 0.01345 -6.71555e-22)
(-0.326044 0.0126919 6.74882e-22)
(-0.341911 0.0118232 0)
(-0.356747 0.0108492 0)
(-0.370406 0.00978043 -5.78117e-23)
(-0.382749 0.00863263 0)
(-0.393658 0.00742765 0)
(-0.403043 0.00619371 0)
(-0.410857 0.00496569 0)
(-0.417098 0.00378537 4.22506e-23)
(-0.421817 0.00270135 -4.24695e-23)
(-0.42513 0.00176436 0)
(-0.427272 0.00100566 7.10521e-24)
(-0.428599 0.000411244 -7.14258e-24)
(-0.429314 -2.2017e-06 0)
(-0.183624 0.0439734 0)
(-0.200601 0.0440662 -2.24653e-22)
(-0.217329 0.0433436 0)
(-0.23389 0.0423219 -3.01032e-21)
(-0.250354 0.0410105 2.93637e-21)
(-0.266593 0.0393779 -1.74905e-22)
(-0.282461 0.0374082 1.21835e-21)
(-0.297808 0.0350972 -2.46655e-21)
(-0.31248 0.032454 1.94831e-21)
(-0.326317 0.0295021 -1.0361e-21)
(-0.339164 0.0262807 -7.33983e-22)
(-0.350868 0.0228473 1.27308e-21)
(-0.361299 0.0192793 -6.21955e-22)
(-0.37035 0.0156771 -2.60475e-22)
(-0.377953 0.0121655 2.0578e-22)
(-0.384077 0.00889392 -3.25154e-23)
(-0.388786 0.00602685 -2.29257e-23)
(-0.392329 0.00370207 -2.44286e-23)
(-0.395012 0.00195654 2.45469e-23)
(-0.396598 0.000813519 -1.56108e-24)
(-0.122245 0.065591 2.3648e-22)
(-0.134921 0.0662533 2.25048e-22)
(-0.147389 0.065829 2.16446e-22)
(-0.159907 0.0649921 0)
(-0.172845 0.0637056 3.28825e-21)
(-0.186125 0.0619061 -2.5686e-21)
(-0.199615 0.0595549 0)
(-0.213192 0.0566298 2.90413e-22)
(-0.226723 0.0531261 1.29148e-22)
(-0.24006 0.0490592 -1.45006e-21)
(-0.253042 0.0444673 2.54863e-22)
(-0.265497 0.0394167 1.59838e-21)
(-0.277248 0.0340075 6.61914e-23)
(-0.288117 0.0283818 5.53153e-23)
(-0.297929 0.0227304 3.95599e-23)
(-0.306517 0.0173001 -7.02247e-23)
(-0.313796 0.0123885 7.75352e-23)
(-0.319944 0.00832686 6.73395e-23)
(-0.325235 0.0053922 6.98135e-24)
(-0.32875 0.00369011 -1.85361e-24)
(-0.0417126 0.0763614 7.23386e-21)
(-0.0488501 0.0782001 -3.41577e-22)
(-0.0554347 0.0788412 -6.06232e-22)
(-0.0620842 0.078999 -6.80732e-21)
(-0.0695728 0.0786552 -5.82841e-22)
(-0.0779162 0.0776894 -1.76379e-22)
(-0.087023 0.0760168 4.59984e-21)
(-0.0968231 0.07359 -2.88679e-21)
(-0.107247 0.0703796 -2.21003e-21)
(-0.118211 0.0663717 1.78726e-21)
(-0.129609 0.0615738 -2.6706e-22)
(-0.141309 0.0560238 -1.65474e-21)
(-0.153156 0.0497985 -6.56413e-23)
(-0.164965 0.043026 -4.50784e-22)
(-0.176517 0.0358989 3.12395e-22)
(-0.187536 0.0287046 1.71684e-22)
(-0.197738 0.021831 -1.60091e-22)
(-0.207094 0.0158117 0)
(-0.215862 0.011356 -6.34646e-24)
(-0.222554 0.00904781 1.93568e-25)
(0.0530164 0.0750709 -1.64239e-20)
(0.0522937 0.078709 6.91175e-21)
(0.0511175 0.080662 -7.4044e-21)
(0.0505481 0.0821327 0)
(0.0492704 0.0832555 3.91955e-22)
(0.0469209 0.0837964 5.63029e-21)
(0.0435465 0.0835791 -2.0746e-22)
(0.0391803 0.0825322 -5.57339e-22)
(0.0338066 0.0806142 -4.55965e-21)
(0.0274063 0.0777823 -2.28058e-22)
(0.0199817 0.0740053 0)
(0.0115604 0.0692779 1.60383e-22)
(0.00219751 0.0636266 0)
(-0.00802959 0.0571156 9.90545e-23)
(-0.0189915 0.049868 0)
(-0.0304737 0.0420914 0)
(-0.0421561 0.0341053 -3.03291e-23)
(-0.0537846 0.0264245 1.25596e-23)
(-0.065597 0.020026 -7.36423e-24)
(-0.0763768 0.0164438 -2.82693e-24)
(0.169443 0.0640952 0)
(0.173257 0.0698243 4.83322e-22)
(0.175053 0.0728798 1.4721e-20)
(0.178503 0.0754146 -1.42609e-20)
(0.18206 0.0779217 4.30307e-22)
(0.184743 0.0800085 0)
(0.18652 0.0813756 5.37865e-21)
(0.187461 0.0819488 -9.85509e-21)
(0.187493 0.0816975 5.09969e-21)
(0.186487 0.080561 2.55603e-22)
(0.184337 0.0784766 2.1776e-22)
(0.18096 0.0754066 1.80446e-22)
(0.176289 0.0713422 0)
(0.170269 0.0663009 -6.00698e-22)
(0.162874 0.0603447 1.27987e-21)
(0.154126 0.0535812 -4.88969e-22)
(0.144144 0.0461856 3.01296e-23)
(0.133134 0.0384105 1.28568e-23)
(0.120879 0.0308593 3.62118e-24)
(0.10732 0.0255603 -3.66218e-24)
(0.32696 0.0490119 -1.82587e-20)
(0.331255 0.05662 0)
(0.331785 0.060079 5.02824e-22)
(0.335279 0.0631144 -9.42936e-22)
(0.34027 0.0665523 -8.83953e-22)
(0.344986 0.0696873 -4.20988e-22)
(0.34925 0.072138 -3.87162e-22)
(0.353228 0.0739078 4.8074e-21)
(0.356821 0.0750041 -5.72981e-21)
(0.359807 0.0753512 -4.43932e-21)
(0.361993 0.0748652 3.68729e-21)
(0.363219 0.0734901 -3.75553e-22)
(0.363328 0.0712003 1.0624e-21)
(0.362169 0.0679919 -3.72041e-22)
(0.359595 0.0638984 -9.64918e-22)
(0.355484 0.0589865 -6.27154e-23)
(0.349743 0.053383 2.66698e-23)
(0.342317 0.0472387 -7.26707e-23)
(0.333307 0.0407046 -3.9556e-23)
(0.320315 0.034802 2.67294e-24)
(0.542114 0.0380967 0)
(0.542732 0.0459198 1.67032e-20)
(0.538618 0.0482187 -1.71346e-20)
(0.538627 0.0509381 4.84352e-22)
(0.541427 0.0546061 9.29471e-22)
(0.544673 0.0579254 4.20623e-22)
(0.548091 0.0605969 7.95119e-22)
(0.551912 0.0628073 0)
(0.556006 0.0645805 3.114e-22)
(0.560092 0.0657988 2.72398e-22)
(0.563938 0.0663581 2.55515e-22)
(0.567364 0.0661902 4.10484e-22)
(0.570171 0.0652624 0)
(0.572169 0.0635525 0)
(0.573148 0.0610921 8.97483e-23)
(0.572916 0.0579196 5.81295e-22)
(0.571342 0.0541841 -4.05002e-22)
(0.568005 0.049975 2.80957e-23)
(0.563797 0.0457417 2.54204e-23)
(0.554478 0.0408602 -1.01104e-23)
(0.806605 0.0384431 -2.00721e-20)
(0.802886 0.043048 0)
(0.79576 0.0425151 0)
(0.79309 0.0445357 1.61203e-20)
(0.793041 0.0476486 -1.37759e-21)
(0.793483 0.0500866 -2.9015e-20)
(0.794372 0.0519921 1.35122e-20)
(0.795953 0.0537249 0)
(0.79807 0.0552702 0)
(0.800496 0.056485 0)
(0.803066 0.0572795 -1.1412e-22)
(0.805677 0.0575762 -3.30236e-22)
(0.808162 0.0573424 -2.65688e-21)
(0.810378 0.0565163 2.55958e-21)
(0.812123 0.0551532 -7.78855e-22)
(0.813196 0.0532027 6.99655e-22)
(0.813551 0.0509427 0)
(0.812517 0.0481577 -7.95656e-24)
(0.811407 0.0458928 -1.1931e-23)
(0.806216 0.0426944 0)
(1.09012 0.0416596 2.92066e-22)
(1.09126 0.0385938 1.79276e-20)
(1.08926 0.0375155 -1.77413e-20)
(1.08802 0.0404028 0)
(1.08604 0.0436073 -1.56986e-20)
(1.0833 0.0461761 3.02401e-20)
(1.08063 0.0484951 -1.45528e-20)
(1.07844 0.0506507 0)
(1.07669 0.0524991 -5.55602e-21)
(1.07536 0.05391 1.04035e-20)
(1.07439 0.0548567 -4.9902e-21)
(1.07381 0.0552729 1.15739e-22)
(1.07349 0.0551928 0)
(1.07339 0.0545246 2.4463e-21)
(1.07334 0.053443 -3.25583e-21)
(1.0732 0.0517688 9.00666e-22)
(1.07297 0.0500235 4.46747e-22)
(1.07205 0.0476693 -3.2811e-22)
(1.07148 0.046106 -1.31934e-22)
(1.06875 0.04369 0)
(1.41148 0.047743 0)
(1.39158 0.0447419 0)
(1.37795 0.0438649 0)
(1.36656 0.04443 0)
(1.35622 0.0454454 0)
(1.34716 0.0466475 0)
(1.33957 0.0479513 0)
(1.33339 0.049206 0)
(1.32832 0.050328 0)
(1.32422 0.0512111 0)
(1.32087 0.0518525 0)
(1.31822 0.052128 0)
(1.31608 0.0521227 0)
(1.31441 0.051655 0)
(1.31301 0.0510002 0)
(1.31179 0.0498128 0)
(1.31073 0.0487535 0)
(1.30935 0.0470745 0)
(1.3085 0.0461743 0)
(1.30633 0.0445008 0)
(1.56089 0.055848 0)
(1.55411 0.0566769 0)
(1.54968 0.0567365 0)
(1.54553 0.0563579 0)
(1.54098 0.0560808 0)
(1.53646 0.0560476 0)
(1.53235 0.0561903 0)
(1.52884 0.0563486 0)
(1.52583 0.056477 0)
(1.52333 0.0564524 0)
(1.52118 0.0563151 0)
(1.51945 0.0558933 0)
(1.51794 0.0553435 0)
(1.51672 0.0543944 0)
(1.5156 0.0534367 0)
(1.51457 0.0519777 0)
(1.51362 0.0508334 0)
(1.51238 0.0490487 0)
(1.51161 0.048177 0)
(1.50969 0.0463857 0)
(1.66675 0.0586069 0)
(1.66484 0.058658 0)
(1.66422 0.0586671 0)
(1.66429 0.0582677 0)
(1.66441 0.0578819 0)
(1.66456 0.0576996 0)
(1.66481 0.0577003 0)
(1.66532 0.0577046 0)
(1.66598 0.0576833 0)
(1.66686 0.0574856 0)
(1.66777 0.0572058 0)
(1.66885 0.0566338 0)
(1.66982 0.0560057 0)
(1.67093 0.0549719 0)
(1.67179 0.0540308 0)
(1.67276 0.052565 0)
(1.67333 0.0515228 0)
(1.67402 0.0497815 0)
(1.67423 0.0490239 0)
(1.67459 0.0472421 0)
(1.74904 0.0593608 0)
(1.75004 0.0580597 0)
(1.75135 0.0573233 0)
(1.75334 0.0566169 0)
(1.75579 0.0560226 0)
(1.75849 0.0556214 0)
(1.76133 0.0554333 0)
(1.76441 0.0552883 0)
(1.76758 0.0551763 0)
(1.77097 0.0549157 0)
(1.77428 0.0546304 0)
(1.77779 0.0540774 0)
(1.78099 0.0535373 0)
(1.78445 0.0526147 0)
(1.78731 0.05185 0)
(1.79063 0.0505793 0)
(1.79285 0.0497606 0)
(1.79609 0.0482683 0)
(1.79736 0.0476901 0)
(1.80088 0.0461717 0)
(1.82031 0.0581418 0)
(1.82315 0.0559261 0)
(1.82583 0.0545154 0)
(1.82897 0.0534743 0)
(1.83257 0.0526613 0)
(1.83653 0.0520236 0)
(1.84064 0.0515972 0)
(1.84501 0.0512432 0)
(1.84942 0.0509808 0)
(1.85413 0.0506196 0)
(1.85869 0.0502922 0)
(1.86359 0.0497475 0)
(1.86805 0.0492691 0)
(1.87303 0.0484666 0)
(1.87707 0.0478517 0)
(1.8821 0.0468011 0)
(1.88535 0.0461716 0)
(1.89064 0.044969 0)
(1.89258 0.0445376 0)
(1.89873 0.0433355 0)
(1.89023 0.0552993 0)
(1.89406 0.0526588 0)
(1.89761 0.0508236 0)
(1.90137 0.0494967 0)
(1.90546 0.0484811 0)
(1.90992 0.0476427 0)
(1.91451 0.0470066 0)
(1.91937 0.0464586 0)
(1.92422 0.0460396 0)
(1.92942 0.04557 0)
(1.9344 0.0451749 0)
(1.93986 0.0446183 0)
(1.94475 0.0441574 0)
(1.95041 0.0434428 0)
(1.95487 0.0429171 0)
(1.96078 0.042046 0)
(1.96442 0.0415391 0)
(1.97087 0.040581 0)
(1.97308 0.0402441 0)
(1.98077 0.0393078 0)
(1.96361 0.0515941 0)
(1.96792 0.048853 0)
(1.97191 0.0467918 0)
(1.97594 0.0452364 0)
(1.98013 0.0440317 0)
(1.98466 0.043022 0)
(1.98928 0.0422137 0)
(1.99419 0.0415039 0)
(1.99903 0.0409423 0)
(2.00425 0.0403702 0)
(2.00917 0.0398981 0)
(2.01468 0.0393163 0)
(2.01949 0.0388442 0)
(2.02527 0.0381842 0)
(2.02969 0.0377025 0)
(2.03584 0.0369594 0)
(2.03945 0.0365246 0)
(2.04631 0.0357447 0)
(2.0485 0.0354649 0)
(2.05677 0.0347212 0)
(2.04108 0.047556 0)
(2.0456 0.0448536 0)
(2.0498 0.0426869 0)
(2.05395 0.0409711 0)
(2.05812 0.0396121 0)
(2.06256 0.0384659 0)
(2.06704 0.0375244 0)
(2.07181 0.0366898 0)
(2.07644 0.0360106 0)
(2.08147 0.0353507 0)
(2.08614 0.0348062 0)
(2.09143 0.0341951 0)
(2.09597 0.0337007 0)
(2.10156 0.0330723 0)
(2.10571 0.0326108 0)
(2.11173 0.0319539 0)
(2.11512 0.0315624 0)
(2.1219 0.0309046 0)
(2.12394 0.0306611 0)
(2.13216 0.0300476 0)
(2.12088 0.0433228 0)
(2.12556 0.0407085 0)
(2.12993 0.0385212 0)
(2.13418 0.0367249 0)
(2.13836 0.0352702 0)
(2.14274 0.0340351 0)
(2.14708 0.0330059 0)
(2.15169 0.0320888 0)
(2.15611 0.0313277 0)
(2.16091 0.0306057 0)
(2.16531 0.0300074 0)
(2.17033 0.0293754 0)
(2.17456 0.0288636 0)
(2.17987 0.0282587 0)
(2.18371 0.0278112 0)
(2.18943 0.0272165 0)
(2.19255 0.0268564 0)
(2.19902 0.0262856 0)
(2.2009 0.026069 0)
(2.20873 0.0255472 0)
(2.20054 0.038832 0)
(2.20542 0.0363456 0)
(2.21001 0.0342112 0)
(2.21446 0.0324141 0)
(2.21874 0.0309318 0)
(2.22313 0.0296637 0)
(2.22743 0.0285967 0)
(2.23195 0.0276435 0)
(2.23623 0.0268425 0)
(2.24088 0.0260928 0)
(2.24507 0.0254692 0)
(2.24986 0.0248356 0)
(2.25384 0.0243228 0)
(2.25887 0.0237471 0)
(2.26245 0.0233196 0)
(2.26787 0.0227809 0)
(2.27075 0.0224512 0)
(2.27686 0.0219535 0)
(2.27858 0.0217611 0)
(2.28595 0.021317 0)
(2.27795 0.0339963 0)
(2.28309 0.0316866 0)
(2.28797 0.0296678 0)
(2.29267 0.0279395 0)
(2.29713 0.0264945 0)
(2.30164 0.0252504 0)
(2.30598 0.0241967 0)
(2.3105 0.023255 0)
(2.31474 0.0224581 0)
(2.3193 0.0217194 0)
(2.32337 0.021104 0)
(2.32801 0.0204956 0)
(2.33182 0.0200042 0)
(2.33664 0.0194738 0)
(2.34002 0.0190791 0)
(2.34518 0.0186039 0)
(2.34788 0.0183101 0)
(2.35366 0.017888 0)
(2.35526 0.0177213 0)
(2.36219 0.0173584 0)
(2.35209 0.028777 0)
(2.3575 0.0266918 0)
(2.36265 0.0248414 0)
(2.36762 0.0232398 0)
(2.37229 0.0218896 0)
(2.37693 0.0207231 0)
(2.38134 0.0197317 0)
(2.38589 0.0188477 0)
(2.39012 0.0180975 0)
(2.39463 0.0174091 0)
(2.39863 0.0168358 0)
(2.40315 0.0162829 0)
(2.40683 0.0158368 0)
(2.41147 0.0153735 0)
(2.4147 0.0150269 0)
(2.41961 0.0146305 0)
(2.42218 0.0143808 0)
(2.42765 0.0140468 0)
(2.42916 0.013909 0)
(2.43567 0.0136408 0)
(2.42347 0.0232281 0)
(2.42899 0.0214089 0)
(2.43429 0.0197738 0)
(2.43939 0.0183488 0)
(2.44415 0.0171424 0)
(2.44883 0.0161012 0)
(2.45324 0.0152157 0)
(2.45773 0.014431 0)
(2.46188 0.0137651 0)
(2.46626 0.0131629 0)
(2.47012 0.0126615 0)
(2.47446 0.0121925 0)
(2.47798 0.0118133 0)
(2.48237 0.0114386 0)
(2.48543 0.011154 0)
(2.49005 0.0108532 0)
(2.49245 0.010655 0)
(2.49756 0.0104234 0)
(2.49896 0.0103172 0)
(2.50501 0.0101585 0)
(2.49364 0.0175754 0)
(2.49893 0.0160532 0)
(2.50406 0.0146717 0)
(2.509 0.0134621 0)
(2.51358 0.0124363 0)
(2.51803 0.0115555 0)
(2.52218 0.0108083 0)
(2.52639 0.010154 0)
(2.53024 0.00959958 0)
(2.5343 0.00910936 0)
(2.53785 0.0087011 0)
(2.54182 0.00833574 0)
(2.54501 0.00803746 0)
(2.549 0.0077656 0)
(2.55176 0.00755088 0)
(2.55592 0.00735539 0)
(2.55807 0.007212 0)
(2.56265 0.00708979 0)
(2.5639 0.00701582 0)
(2.5693 0.00697258 0)
(2.56348 0.0122655 0)
(2.56809 0.0110484 0)
(2.57261 0.00993606 0)
(2.57695 0.00895847 0)
(2.58096 0.00812787 0)
(2.58482 0.00742116 0)
(2.58838 0.00682454 0)
(2.59196 0.00631208 0)
(2.59523 0.00587874 0)
(2.59866 0.00550874 0)
(2.60164 0.00519939 0)
(2.60497 0.00494148 0)
(2.60763 0.00472583 0)
(2.61096 0.00455587 0)
(2.61323 0.00440925 0)
(2.6167 0.00431415 0)
(2.61846 0.00422199 0)
(2.62227 0.0042009 0)
(2.62329 0.004156 0)
(2.62776 0.0042167 0)
(2.6312 0.00782194 0)
(2.63477 0.00688726 0)
(2.6383 0.00602913 0)
(2.6417 0.00527194 0)
(2.64479 0.00462623 0)
(2.64774 0.004083 0)
(2.65042 0.00362668 0)
(2.6531 0.00324504 0)
(2.65553 0.00292274 0)
(2.65807 0.0026609 0)
(2.66025 0.00243979 0)
(2.66271 0.00227482 0)
(2.66464 0.00213012 0)
(2.66709 0.00204412 0)
(2.66873 0.00195352 0)
(2.67128 0.0019371 0)
(2.67254 0.00188554 0)
(2.67535 0.00193962 0)
(2.67607 0.00191702 0)
(2.67938 0.00205058 0)
(2.69233 0.00453544 0)
(2.69475 0.00384391 0)
(2.69719 0.00320888 0)
(2.69952 0.00264764 0)
(2.7016 0.00216672 0)
(2.70353 0.00176627 0)
(2.70523 0.00143046 0)
(2.70692 0.00115786 0)
(2.70841 0.000927039 0)
(2.70997 0.000750459 0)
(2.71129 0.000598534 0)
(2.71278 0.000501559 0)
(2.71392 0.000408884 0)
(2.7154 0.000379157 0)
(2.71635 0.000327901 0)
(2.7179 0.000358669 0)
(2.71862 0.000334115 0)
(2.72034 0.00042687 0)
(2.72075 0.000418375 0)
(2.72278 0.000581802 0)
(2.74204 0.00233521 0)
(2.74348 0.00184965 0)
(2.74497 0.00140967 0)
(2.74636 0.00102511 0)
(2.74754 0.000696733 0)
(2.74855 0.000426062 0)
(2.74939 0.000199566 0)
(2.75018 1.96724e-05 0)
(2.75083 -0.000133756 0)
(2.75151 -0.000244178 0)
(2.75205 -0.000341661 0)
(2.75267 -0.000392873 0)
(2.75309 -0.000448115 0)
(2.75369 -0.000447971 0)
(2.75401 -0.000474283 0)
(2.75464 -0.000427218 0)
(2.75487 -0.000436456 0)
(2.75559 -0.000340845 0)
(2.75571 -0.000342056 0)
(2.75657 -0.000190761 0)
(2.77704 0.00107795 0)
(2.77778 0.000748423 0)
(2.77857 0.000463861 0)
(2.77927 0.000227392 0)
(2.77978 3.15648e-05 0)
(2.78012 -0.000122669 0)
(2.78031 -0.000250222 0)
(2.78042 -0.00034895 0)
(2.78046 -0.000433804 0)
(2.78047 -0.000491365 0)
(2.78042 -0.000543577 0)
(2.78038 -0.000565137 0)
(2.78026 -0.000592237 0)
(2.78019 -0.000582231 0)
(2.78005 -0.000593189 0)
(2.77998 -0.000553855 0)
(2.77984 -0.000555593 0)
(2.77979 -0.000485421 0)
(2.7797 -0.000483856 0)
(2.77967 -0.000378024 0)
(2.79518 0.000479712 0)
(2.79554 0.000318487 0)
(2.79597 0.000186148 0)
(2.79631 8.18079e-05 0)
(2.79647 -1.57144e-06 0)
(2.79644 -6.37044e-05 0)
(2.79628 -0.000114272 0)
(2.79602 -0.000152451 0)
(2.79572 -0.000184967 0)
(2.79537 -0.00020701 0)
(2.795 -0.000226806 0)
(2.7946 -0.000235161 0)
(2.7942 -0.00024541 0)
(2.79376 -0.000242087 0)
(2.79337 -0.000246229 0)
(2.79292 -0.000232325 0)
(2.79258 -0.000233027 0)
(2.79211 -0.000208243 0)
(2.79191 -0.000207696 0)
(2.79139 -0.000170522 0)
(1.77905 0.139044 2.38401e-21)
(1.78879 0.127819 0)
(1.78917 0.116367 -4.52712e-22)
(1.78176 0.105052 -1.37561e-20)
(1.76493 0.0941119 2.40674e-20)
(1.74321 0.0845539 0)
(1.7102 0.0747677 2.11672e-20)
(1.66596 0.0695294 0)
(1.62183 0.056963 2.00487e-20)
(1.44085 0.0479455 -3.02495e-22)
(1.83148 0.128175 -2.64776e-21)
(1.83973 0.118942 5.43645e-22)
(1.83921 0.109261 -5.44737e-22)
(1.83085 0.100864 -9.82324e-22)
(1.81578 0.0914815 -1.3069e-20)
(1.79085 0.0854657 -8.04877e-22)
(1.77225 0.0766745 0)
(1.7142 0.0735881 -2.16497e-20)
(1.72176 0.06798 0)
(1.56957 0.0557941 -1.89464e-20)
(1.88972 0.117262 5.42554e-21)
(1.89525 0.109697 0)
(1.89572 0.100969 -5.18962e-22)
(1.88312 0.0945725 -4.03389e-22)
(1.87379 0.0864216 1.38909e-20)
(1.83906 0.0820939 0)
(1.83576 0.0760235 2.41779e-20)
(1.7642 0.0714163 2.2274e-20)
(1.7851 0.0708759 0)
(1.66916 0.0607175 1.87516e-20)
(1.95138 0.107349 -2.44249e-21)
(1.95354 0.100962 1.00472e-20)
(1.95732 0.0934041 0)
(1.93927 0.087925 1.6257e-20)
(1.93687 0.0815235 9.06484e-22)
(1.89373 0.0767204 -1.73864e-21)
(1.89722 0.0733733 -2.32475e-20)
(1.82443 0.067123 -7.65577e-22)
(1.83688 0.0677921 -2.27976e-20)
(1.74748 0.0622902 0)
(2.01431 0.0983064 0)
(2.01358 0.092607 -9.79686e-21)
(2.02091 0.0865771 -1.1043e-20)
(1.99953 0.081252 1.62383e-21)
(2.00136 0.0767617 -1.04851e-21)
(1.95648 0.0712333 -8.76702e-22)
(1.95828 0.0693462 -2.59828e-20)
(1.8927 0.0636462 -1.55383e-21)
(1.89384 0.063271 -3.38923e-22)
(1.81685 0.061338 2.16053e-20)
(2.07662 0.0897762 3.05733e-21)
(2.0746 0.0845085 6.58154e-22)
(2.08396 0.0799065 -1.5956e-21)
(2.0628 0.074715 5.995e-22)
(2.06549 0.0715311 -1.71021e-20)
(2.02443 0.066335 0)
(2.02223 0.0646199 2.845e-20)
(1.96455 0.0607878 -8.43808e-22)
(1.95969 0.0589524 4.81288e-20)
(1.88609 0.0586371 -4.3811e-20)
(2.13703 0.081458 -3.07238e-21)
(2.13536 0.0766826 -5.74924e-21)
(2.14529 0.0730402 1.02495e-20)
(2.1268 0.0684182 -1.81623e-20)
(2.12916 0.0657562 -1.7605e-21)
(2.09357 0.0617354 -1.62219e-20)
(2.08962 0.0595884 8.79046e-22)
(2.03726 0.057392 -1.68569e-21)
(2.03174 0.0546645 -2.35992e-20)
(1.95922 0.0548811 2.21998e-20)
(2.19497 0.0731511 0)
(2.19449 0.0690476 1.23819e-20)
(2.20457 0.0659224 -1.3436e-21)
(2.1893 0.0622068 1.00374e-20)
(2.19211 0.0596435 -5.6501e-22)
(2.16114 0.0568718 3.20116e-20)
(2.15845 0.0543708 -1.45038e-20)
(2.1098 0.0531227 0)
(2.10651 0.0502432 0)
(2.03655 0.0506652 0)
(2.25049 0.0647938 0)
(2.2512 0.0614367 -1.12587e-20)
(2.26176 0.0586237 -7.18495e-22)
(2.24913 0.0558231 9.99079e-21)
(2.2535 0.0533364 1.83698e-20)
(2.22605 0.0514789 -1.78109e-20)
(2.22623 0.0489919 1.74224e-20)
(2.18143 0.048271 -9.36746e-22)
(2.18118 0.045672 0)
(2.11623 0.0462447 1.23604e-20)
(2.30426 0.0563976 3.99445e-22)
(2.30582 0.0537157 6.41419e-21)
(2.3171 0.0512016 1.00014e-20)
(2.30642 0.0491253 -5.75651e-22)
(2.31267 0.0468601 1.24399e-21)
(2.2883 0.0455964 -1.88384e-20)
(2.29135 0.0434064 1.84251e-20)
(2.25124 0.0430537 -9.62969e-22)
(2.2536 0.0408238 0)
(2.19571 0.0415682 -2.49237e-20)
(2.35764 0.048035 0)
(2.35973 0.045889 6.29662e-21)
(2.3715 0.0437125 1.93059e-22)
(2.36237 0.0421532 0)
(2.36992 0.0402132 0)
(2.34856 0.039355 1.66888e-20)
(2.3535 0.0375299 -1.52916e-20)
(2.31865 0.0374804 -9.17591e-22)
(2.32264 0.035554 4.8409e-22)
(2.27285 0.0365081 1.29763e-20)
(2.41261 0.0397679 0)
(2.41499 0.0380656 -1.19629e-20)
(2.42659 0.0362483 -1.31754e-20)
(2.41878 0.0350684 2.01682e-21)
(2.42661 0.0334527 -1.29918e-21)
(2.40818 0.0328962 -1.11144e-21)
(2.41369 0.0313618 2.11806e-21)
(2.38404 0.0315603 1.3744e-20)
(2.38859 0.0298621 1.35382e-21)
(2.34673 0.0310137 -4.22931e-22)
(2.47109 0.0317932 0)
(2.47348 0.0304876 6.43516e-21)
(2.48414 0.0290099 -7.23566e-22)
(2.47745 0.0281245 7.17591e-22)
(2.48461 0.0267646 0)
(2.46881 0.0264255 0)
(2.47386 0.02508 0)
(2.44875 0.0254378 -1.56164e-20)
(2.45309 0.0239205 1.46779e-20)
(2.41799 0.0251551 0)
(2.53338 0.0245596 0)
(2.53548 0.0235727 4.08944e-21)
(2.54464 0.0223706 5.33054e-21)
(2.53887 0.021692 7.01431e-21)
(2.54489 0.0205117 -1.34289e-21)
(2.53137 0.0202816 8.44712e-21)
(2.53554 0.0190622 -7.69916e-21)
(2.51422 0.019429 0)
(2.51799 0.0180742 7.2527e-22)
(2.48837 0.0191791 -1.40002e-20)
(2.5967 0.0184741 -8.95356e-22)
(2.59836 0.0177046 -3.3116e-21)
(2.60587 0.0167194 -6.88904e-21)
(2.60103 0.0161501 -4.93285e-21)
(2.60594 0.0151193 0)
(2.59468 0.0148745 -1.0767e-20)
(2.59808 0.0137808 1.1033e-20)
(2.58032 0.0139824 -1.05061e-21)
(2.5835 0.0128023 -7.2547e-21)
(2.5589 0.013554 2.02818e-20)
(2.65561 0.0136458 8.99952e-22)
(2.65706 0.0130097 -2.55799e-21)
(2.66316 0.0122199 2.3252e-21)
(2.65957 0.0116887 -5.79488e-21)
(2.66367 0.0108288 0)
(2.65502 0.0104895 0)
(2.65792 0.00956496 1.08559e-21)
(2.64414 0.00950375 -1.03006e-20)
(2.64677 0.00852619 -6.47403e-21)
(2.62771 0.00882609 -6.77831e-21)
(2.70497 0.00981292 0)
(2.7067 0.00928423 4.21018e-21)
(2.71174 0.00869821 -1.56144e-21)
(2.7098 0.00820012 5.15279e-21)
(2.71332 0.00754653 1.38944e-21)
(2.7077 0.00712682 -1.19575e-21)
(2.7102 0.00641059 2.26344e-21)
(2.7009 0.00612705 7.14246e-21)
(2.70296 0.00536581 0)
(2.69001 0.00529529 0)
(2.74286 0.00654854 0)
(2.74513 0.00617502 1.71544e-21)
(2.74933 0.00581625 -3.1752e-21)
(2.74909 0.00541663 0)
(2.75207 0.00498955 -2.71688e-21)
(2.74939 0.00458242 -1.20497e-21)
(2.75145 0.0040842 -3.38906e-21)
(2.74643 0.00370946 -1.00538e-21)
(2.7479 0.00315529 5.17674e-22)
(2.74071 0.00288416 4.43692e-22)
(2.76967 0.00361521 0)
(2.77225 0.00346863 -1.72365e-21)
(2.77566 0.00335722 -1.57881e-21)
(2.77667 0.00315544 2.2013e-21)
(2.77906 0.00296665 1.31225e-21)
(2.77859 0.0027004 1.25173e-21)
(2.78015 0.00242238 5.66016e-21)
(2.77837 0.00211401 -4.16483e-21)
(2.77929 0.00175571 9.74953e-22)
(2.77644 0.00145742 0)
(2.78434 0.000970798 0)
(2.78693 0.00103883 8.46567e-22)
(2.78976 0.00112013 -8.12964e-22)
(2.79133 0.00114709 7.732e-22)
(2.79329 0.00116816 0)
(2.79393 0.00112776 -1.25793e-21)
(2.79512 0.00107114 1.11401e-21)
(2.79502 0.000963457 1.00564e-21)
(2.79556 0.000827998 0)
(2.79499 0.000669318 0)
(1.1356 0.239331 0)
(1.07735 0.260796 -5.86093e-20)
(1.03094 0.289929 0)
(0.993169 0.327631 -1.94566e-19)
(0.960056 0.373456 7.32621e-20)
(0.929304 0.429094 2.1423e-21)
(0.897722 0.494831 6.59302e-20)
(0.847198 0.558805 -6.9344e-21)
(0.718729 0.565593 0)
(0.398111 0.344979 6.98326e-20)
(1.22376 0.242528 1.07468e-19)
(1.16714 0.270002 5.86079e-20)
(1.12101 0.297865 -5.64154e-20)
(1.08245 0.334339 6.54519e-20)
(1.04967 0.380033 -5.7452e-20)
(1.02153 0.435583 7.14682e-21)
(0.994149 0.500665 -6.75614e-20)
(0.946364 0.562486 -1.35537e-19)
(0.809864 0.564986 -3.60303e-20)
(0.448617 0.338665 -1.02519e-19)
(1.30666 0.241835 -4.83032e-20)
(1.25458 0.271442 5.01455e-20)
(1.20992 0.298655 5.64135e-20)
(1.17068 0.334227 5.80638e-20)
(1.13796 0.379314 5.95889e-20)
(1.11209 0.433884 6.07248e-20)
(1.08832 0.496921 8.49819e-21)
(1.04194 0.554422 6.00025e-20)
(0.895312 0.550657 2.45817e-20)
(0.49254 0.322058 -2.62405e-20)
(1.38686 0.238558 9.64671e-20)
(1.33804 0.268517 -5.01433e-20)
(1.2947 0.294819 0)
(1.25538 0.328936 0)
(1.22305 0.372335 0)
(1.19918 0.424639 4.73714e-20)
(1.17802 0.484048 -4.21878e-20)
(1.13094 0.53491 0)
(0.971257 0.522908 1.86653e-20)
(0.526527 0.295668 -3.84513e-20)
(1.46225 0.232409 -1.87288e-20)
(1.41532 0.261446 6.65628e-20)
(1.37304 0.286631 0)
(1.33429 0.318919 0)
(1.30288 0.359731 2.00586e-20)
(1.28078 0.408565 1.93549e-20)
(1.26096 0.462821 2.61365e-20)
(1.21037 0.504756 1.55561e-20)
(1.03363 0.482736 2.51158e-20)
(0.547374 0.26096 -4.17213e-21)