/*--------------------------------*- C++ -*----------------------------------*\
| =========                 |                                                 |
| \\      /  F ield         | OpenFOAM: The Open Source CFD Toolbox           |
|  \\    /   O peration     | Version:  4.1                                   |
|   \\  /    A nd           | Web:      www.OpenFOAM.org                      |
|    \\/     M anipulation  |                                                 |
\*---------------------------------------------------------------------------*/
FoamFile
{
    version     2.0;
    format      ascii;
    class       surfaceScalarField;
    location    "4.6";
    object      phi;
}
// * * * * * * * * * * * * * * * * * * * * * * * * * * * * * * * * * * * * * //

dimensions      [0 3 -1 0 0 0 0];

internalField   nonuniform List<scalar> 
3890
(
0.000715671
0.000328549
-0.00104422
0.00331835
-0.00434718
0.0017445
0.00798434
-0.0122392
0.00757316
0.0144545
-0.0216533
0.0151831
0.0220685
-0.0310326
0.0234186
0.0300233
-0.0392313
0.0312765
0.0376322
-0.0456752
0.0380663
0.0444453
-0.0502868
0.0434737
0.0501926
-0.0532017
0.0474545
-0.0548717
0.0502319
0.0548324
0.000960514
-0.000631965
0.00423689
-0.00762356
0.00980999
-0.0178123
0.0170378
-0.0288811
0.0249229
-0.0389177
0.0325512
-0.0468597
0.0393395
-0.0524634
0.0450493
-0.0559967
0.0497511
-0.0579035
-0.0588083
0.0536877
0.00125752
-0.00188949
0.00524559
-0.0116116
0.0115839
-0.0241505
0.0191676
-0.0364649
0.0267777
-0.0465278
0.0335776
-0.0536596
0.0392155
-0.0581013
0.0436997
-0.0604809
0.0472479
-0.0614517
-0.0616327
0.0500723
0.00159411
-0.00348359
0.00625821
-0.0162757
0.0130835
-0.0309758
0.020547
-0.0439283
0.0274149
-0.0533957
0.033093
-0.0593377
0.0375119
-0.0625202
0.0408857
-0.0638547
0.0435234
-0.0640894
-0.0637905
0.0456811
0.0019492
-0.0054328
0.00716287
-0.0214894
0.0141038
-0.0379167
0.0210107
-0.0508353
0.0268416
-0.0592265
0.0313176
-0.0638138
0.0346102
-0.0658128
0.0370497
-0.0662941
0.0389613
-0.066001
-0.0653953
0.0405661
0.0022942
-0.007727
0.00784504
-0.0270402
0.0145162
-0.0445879
0.0205525
-0.0568716
0.0252305
-0.0639046
0.028568
-0.0671513
0.030897
-0.0681417
0.0325883
-0.0679854
0.0339333
-0.067346
-0.0665585
0.0350966
0.00259424
-0.0103212
0.00821399
-0.03266
0.0142903
-0.0506642
0.0192848
-0.061866
0.0228233
-0.0674431
0.0251503
-0.0694783
0.0266753
-0.0696668
0.0277516
-0.0690617
0.028613
-0.0682074
-0.0673253
0.0293798
0.00281239
-0.0131336
0.0082196
-0.0380672
0.0134766
-0.0559212
0.017377
-0.0657663
0.0198602
-0.0699263
0.0213161
-0.0709343
0.0221679
-0.0705185
0.0227204
-0.0696143
0.0231489
-0.0686359
-0.0677086
0.0235322
0.00291774
-0.0160514
0.00786433
-0.0430138
0.0121756
-0.0602325
0.0150074
-0.0685982
0.0165454
-0.0714643
0.0172531
-0.071642
0.017525
-0.0707904
0.0176063
-0.0696955
0.0176185
-0.0686481
-0.0677029
0.0176128
0.0028932
-0.0189446
0.00719562
-0.0473162
0.0105081
-0.063545
0.0123374
-0.0704275
0.0130393
-0.0721663
0.0130947
-0.0716973
0.0128479
-0.0705436
0.0124873
-0.069335
0.0120953
-0.0682561
0.0116985
-0.067306
-0.000760025
0.000760025
-0.00206774
0.00130771
-0.00346657
0.00139883
-0.00470569
0.00123912
-0.00562567
0.000919976
-0.00611435
0.000488677
-0.00608949
-2.48562e-05
-0.00551545
-0.000574035
-0.00439107
-0.00112438
-0.00159803
-0.00279304
-0.000673619
0.00143364
-0.00182218
0.00245628
-0.00302184
0.00259848
-0.00402664
0.00224392
-0.00467885
0.00157219
-0.00486655
0.000676372
-0.0045164
-0.000375001
-0.00357534
-0.0015151
-0.0020384
-0.00266133
-0.00365375
1.73221e-05
-0.00051798
0.00195162
-0.00137917
0.00331747
-0.00220671
0.00342602
-0.00276909
0.0028063
-0.00291299
0.0017161
-0.00252688
0.000290269
-0.00154515
-0.00135674
9.13915e-05
-0.00315164
0.00239803
-0.00496797
-0.00658841
0.0053327
-0.000327573
0.0022792
-0.000816634
0.00380653
-0.00114687
0.00375626
-0.00110515
0.00276457
-0.000540753
0.0011517
0.000640425
-0.000890909
0.00251194
-0.00322825
0.00510314
-0.00574283
0.00842773
-0.00829256
-0.0106497
0.012489
-0.000137314
0.00241651
-0.000220666
0.00388989
1.52583e-05
0.00352033
0.000775116
0.00200472
0.00219587
-0.000269056
0.00436659
-0.00306163
0.00733056
-0.00619222
0.0110821
-0.00949437
0.0155827
-0.0127931
-0.0159378
0.0208708
2.85191e-05
0.00238799
0.000346235
0.00357217
0.00118771
0.00267885
0.00273808
0.000454354
0.00513079
-0.00266177
0.00843262
-0.00636346
0.0126363
-0.0103959
0.0176661
-0.0145241
0.0233893
-0.0185163
-0.0223679
0.0298194
0.000160788
0.0022272
0.000864101
0.00286886
0.00233271
0.00121024
0.00474639
-0.00195932
0.0082139
-0.00612928
0.0127465
-0.010896
0.018247
-0.0158965
0.0245278
-0.0208049
0.0313438
-0.0253323
-0.0296137
0.0385895
0.00027174
0.00195546
0.00136107
0.00177952
0.00350341
-0.000932095
0.00686394
-0.00531985
0.0114896
-0.0107549
0.017275
-0.0166814
0.0239754
-0.022597
0.0312612
-0.0280906
0.0387917
-0.0328628
-0.0370954
0.0462733
0.000384877
0.00157059
0.0018977
0.000266707
0.00479327
-0.00382767
0.00918734
-0.00971391
0.0149896
-0.0165572
0.0218961
-0.0235879
0.0294696
-0.0301705
0.0372587
-0.0358797
0.0448889
-0.040493
-0.0441163
0.0519098
0.000526368
0.00253757
0.00628306
0.0117523
0.0186136
0.0263023
0.0341981
0.0417921
0.0487535
0.0548692
-0.000940117
-0.00185292
0.00111403
-0.00205414
0.00336487
-0.00225084
0.00578491
-0.00242004
0.00834078
-0.00255587
0.0109998
-0.00265897
0.0137305
-0.00273077
0.0165035
-0.00277294
0.0192912
-0.00278768
0.0220688
-0.00277769
0.0248148
-0.00274598
0.0275105
-0.00269565
0.0301401
-0.00262964
0.0326912
-0.00255106
0.0351548
-0.00246361
0.0375256
-0.00237085
0.0398027
-0.00227703
0.0419854
-0.00218271
0.0440886
-0.00210323
-0.00200331
0.00190271
-0.00373831
0.00395337
-0.00410481
0.00618111
-0.00447859
0.00856297
-0.00480189
0.0110666
-0.00505952
0.0136606
-0.00525291
0.0163151
-0.00538529
0.0190021
-0.00545997
0.0216956
-0.00548118
0.0243722
-0.00545424
0.0270114
-0.00538522
0.029596
-0.0052803
0.0321117
-0.00514535
0.0345472
-0.00498646
0.0368946
-0.00481105
0.0391494
-0.00462561
0.0413119
-0.00443956
0.0433793
-0.00425018
0.0453719
-0.00409583
-0.00388668
0.007225
-0.00563062
0.009253
-0.00613281
0.0114293
-0.00665493
0.0137338
-0.00710633
0.0161347
-0.00746046
0.0186027
-0.00772086
0.021111
-0.0078936
0.0236345
-0.00798353
0.0261499
-0.00799658
0.0286363
-0.00794057
0.0310756
-0.00782454
0.0334531
-0.00765784
0.035757
-0.00744923
0.037978
-0.00720749
0.0401107
-0.00694375
0.0421516
-0.00666648
0.0441033
-0.00639129
0.0459617
-0.00610852
0.0477488
-0.00588297
-0.00556653
0.0143885
-0.00753008
0.0163709
-0.00811522
0.0184616
-0.00874563
0.0206454
-0.00929013
0.022893
-0.00970801
0.025178
-0.0100059
0.0274783
-0.0101938
0.0297726
-0.0102779
0.0320412
-0.0102652
0.0342665
-0.0101659
0.0364339
-0.00999193
0.0385319
-0.00975582
0.040552
-0.0094693
0.0424878
-0.00914331
0.0443368
-0.00879278
0.046097
-0.00842672
0.0477742
-0.00806841
0.0493623
-0.00769667
0.0508867
-0.00740735
-0.00698669
0.0227095
-0.00936881
0.0245879
-0.00999357
0.0265352
-0.0106929
0.0285387
-0.0112937
0.0305732
-0.0117425
0.032617
-0.0120498
0.0346523
-0.0122291
0.0366619
-0.0122875
0.0386299
-0.0122332
0.0405426
-0.0120786
0.0423892
-0.0118385
0.0441619
-0.0115286
0.0458563
-0.0111636
0.0474691
-0.0107561
0.0490009
-0.0103247
0.0504514
-0.00987719
0.051829
-0.00944603
0.0531267
-0.00899432
0.0543714
-0.00865203
-0.00813662
0.0314849
-0.0110344
0.0331678
-0.0116765
0.0348902
-0.0124153
0.0366379
-0.0130413
0.0383919
-0.0134964
0.0401363
-0.0137942
0.0418562
-0.013949
0.0435373
-0.0139685
0.0451671
-0.013863
0.0467361
-0.0136475
0.0482378
-0.0133402
0.0496685
-0.0129593
0.0510276
-0.0125227
0.0523149
-0.0120434
0.053534
-0.0115438
0.0546853
-0.0110285
0.0557792
-0.0105399
0.0568075
-0.0100226
0.0577967
-0.00964126
-0.0090471
0.0399559
-0.0124007
0.0413474
-0.013068
0.042762
-0.0138299
0.0441818
-0.0144611
0.0455978
-0.0149125
0.0469986
-0.015195
0.0483693
-0.0153197
0.0496974
-0.0152966
0.0509745
-0.0151401
0.0521957
-0.0148687
0.053359
-0.0145035
0.0544647
-0.0140651
0.0555158
-0.0135738
0.0565143
-0.0130419
0.057465
-0.0124945
0.0583678
-0.0119313
0.059233
-0.0114051
0.0600506
-0.0108402
0.0608446
-0.0104352
-0.00978128
0.0472741
-0.0134014
0.0483283
-0.0141223
0.0493893
-0.0148909
0.0504484
-0.0155202
0.0515058
-0.0159699
0.0525497
-0.016239
0.0535668
-0.0163367
0.0545493
-0.0162792
0.0554953
-0.0160861
0.056405
-0.0157784
0.0572802
-0.0153787
0.0581234
-0.0149082
0.0589385
-0.0143889
0.0597281
-0.0138314
0.0604951
-0.0132616
0.0612368
-0.012673
0.0619611
-0.0121294
0.0626558
-0.0115349
0.0633404
-0.0111198
-0.010422
0.0526033
-0.0140949
0.053376
-0.014895
0.0541167
-0.0156316
0.0548466
-0.0162502
0.0555739
-0.0166971
0.05629
-0.016955
0.0569928
-0.0170395
0.0576873
-0.0169738
0.0583792
-0.016778
0.0590716
-0.0164708
0.0597659
-0.016073
0.0604615
-0.0156039
0.0611582
-0.0150856
0.0618542
-0.0145274
0.0625497
-0.0139571
0.0632383
-0.0133616
0.0639243
-0.0128154
0.0645938
-0.0122044
0.0652625
-0.0117885
-0.0110588
0.0557228
-0.0149485
0.0563045
-0.0154767
0.056785
-0.016112
0.0572319
-0.0166972
0.0576764
-0.0171417
0.0581362
-0.0174148
0.0586233
-0.0175266
0.0591459
-0.0174964
0.059709
-0.0173411
0.0603133
-0.0170751
0.0609561
-0.0167157
0.0616306
-0.0162784
0.0623293
-0.0157843
0.063044
-0.0152422
0.0637722
-0.0146852
0.0645047
-0.0140941
0.0652416
-0.0135523
0.0659694
-0.0129322
0.066698
-0.0125171
-0.0117724
0.0816882
-0.0133973
-0.0832394
0.0804439
-0.0142324
0.0791987
-0.0148668
0.0779119
-0.0154104
0.0766052
-0.0158349
0.0753035
-0.0161131
0.0740236
-0.0162468
0.0727778
-0.0162505
0.0715767
-0.0161401
0.0704305
-0.0159288
0.069347
-0.0156322
0.0683317
-0.0152632
0.0673887
-0.0148412
0.0665192
-0.0143728
0.0657228
-0.0138888
0.0649965
-0.0133678
0.064334
-0.0128898
0.0637321
-0.0123303
0.0631762
-0.0119612
-0.0112772
0.0834858
-0.0119937
-0.0848893
0.0821173
-0.0128639
0.0807878
-0.0135373
0.0794485
-0.0140711
0.0780989
-0.0144854
0.0767588
-0.014773
0.0754447
-0.0149326
0.0741674
-0.0149732
0.0729357
-0.0149084
0.0717578
-0.0147509
0.0706404
-0.0145148
0.0695886
-0.0142113
0.0686051
-0.0138577
0.0676906
-0.0134584
0.0668436
-0.0130418
0.0660623
-0.0125865
0.0653396
-0.0121671
0.0646756
-0.0116664
0.0640517
-0.0113373
-0.0107062
0.0841595
-0.01067
-0.0854832
0.0828201
-0.0115245
0.0814982
-0.0122154
0.0801791
-0.012752
0.0788562
-0.0131624
0.0775404
-0.0134573
0.0762467
-0.0136389
0.0749865
-0.013713
0.0737685
-0.0136904
0.0726002
-0.0135825
0.0714874
-0.0134021
0.0704347
-0.0131586
0.0694442
-0.0128672
0.0685168
-0.012531
0.0676509
-0.0121758
0.0668453
-0.0117809
0.0660932
-0.011415
0.0653954
-0.0109686
0.064734
-0.0106759
-0.0100984
0.0840951
-0.00945851
-0.0853066
0.0828552
-0.0102846
0.0816088
-0.010969
0.0803583
-0.0115015
0.0791036
-0.0119077
0.0778526
-0.0122063
0.076618
-0.0124042
0.0754107
-0.0125057
0.0742392
-0.012519
0.0731105
-0.0124538
0.0720298
-0.0123214
0.0710012
-0.0121301
0.0700271
-0.0118931
0.0691086
-0.0116125
0.0682445
-0.0113117
0.0674343
-0.0109706
0.066672
-0.0106527
0.0659593
-0.0102559
0.06528
-0.00999654
-0.00947018
0.0836256
-0.0083872
-0.0846969
0.0825109
-0.00916995
0.08137
-0.00982811
0.0802136
-0.010345
0.0790481
-0.0107422
0.0778818
-0.0110401
0.0767252
-0.0112475
0.0755882
-0.0113687
0.0744792
-0.01141
0.0734047
-0.0113793
0.07237
-0.0112867
0.0713792
-0.0111392
0.0704346
-0.0109485
0.0695378
-0.0107157
0.0686881
-0.0104621
0.0678858
-0.0101683
0.0671259
-0.00989272
0.0664107
-0.00954082
0.0657257
-0.00931149
-0.00883299
0.0829984
-0.00745324
-0.0839324
0.0820053
-0.00817685
0.0809725
-0.00879526
0.0799147
-0.00928733
0.0788423
-0.00966978
0.0777639
-0.00996163
0.0766886
-0.0101723
0.0756257
-0.0103058
0.0745831
-0.0103674
0.0735672
-0.0103635
0.0725832
-0.0103028
0.0716352
-0.0101912
0.0707258
-0.010039
0.0698569
-0.00984679
0.0690283
-0.00963351
0.0682409
-0.00938096
0.0674906
-0.00914241
0.0667806
-0.00883082
0.0660975
-0.0086284
-0.00819473
0.0823516
-0.0066326
-0.0831723
0.0814647
-0.00728988
0.0805303
-0.00786091
0.0795647
-0.00832169
0.0785792
-0.00868431
0.0775829
-0.00896534
0.0765843
-0.00917371
0.0755919
-0.00931334
0.074613
-0.00938849
0.0736541
-0.00940453
0.07272
-0.00936878
0.071815
-0.00928617
0.0709418
-0.00916579
0.0701025
-0.00900755
0.0692976
-0.0088286
0.0685284
-0.00861177
0.0677916
-0.00840561
0.067091
-0.00813022
0.0664146
-0.00795191
-0.00756019
0.0817479
-0.00590099
-0.0824795
0.0809497
-0.0064917
0.0801006
-0.00701181
0.0792161
-0.00743711
0.0783077
-0.00777596
0.0773846
-0.00804224
0.0764548
-0.00824394
0.0755261
-0.00838461
0.0746055
-0.00846784
0.0736989
-0.00849799
0.0728114
-0.00848127
0.071947
-0.00842172
0.0711085
-0.00832729
0.0702984
-0.0081975
0.0695175
-0.00804768
0.0687676
-0.00786184
0.068046
-0.00768401
0.067357
-0.00744123
0.0666896
-0.00728456
-0.00693216
0.0812091
-0.00524001
-0.0818701
0.0804836
-0.00576626
0.0797064
-0.00623452
0.0788913
-0.00662201
0.0780497
-0.00693436
0.0771903
-0.00718291
0.0763209
-0.00737451
0.0754485
-0.00751222
0.0745797
-0.00759904
0.0737202
-0.00763854
0.0728749
-0.00763591
0.0720476
-0.00759446
0.0712414
-0.00752108
0.0704589
-0.00741502
0.0697012
-0.00728993
0.0689704
-0.00713105
0.0682645
-0.00697807
0.067588
-0.00676479
0.0669311
-0.00662763
-0.00631223
0.0807371
-0.00463518
-0.0813419
0.0800707
-0.00509993
0.0793533
-0.00551705
0.0785971
-0.00586584
0.0778127
-0.00615
0.0770085
-0.00637865
0.0761915
-0.0065575
0.0753684
-0.0066891
0.0745453
-0.00677593
0.0737276
-0.00682087
0.0729199
-0.00682827
0.0721263
-0.00680078
0.0713496
-0.00674436
0.0705926
-0.00665808
0.0698567
-0.00655401
0.0691443
-0.00641867
0.0684538
-0.00628757
0.0677901
-0.00610112
0.0671441
-0.00598161
-0.00570115
0.0803267
-0.00407497
-0.0808869
0.0797084
-0.00448168
0.0790406
-0.00484929
0.0783342
-0.00515943
0.0775987
-0.00541446
0.0768418
-0.00562172
0.0760701
-0.00578583
0.0752898
-0.00590886
0.0745068
-0.00599283
0.0737259
-0.00604006
0.0729518
-0.00605414
0.0721882
-0.0060372
0.0714382
-0.00599433
0.0707046
-0.00592451
0.069989
-0.00583834
0.0692939
-0.00572363
0.0686182
-0.0056119
0.0679671
-0.00544997
0.067332
-0.00534652
-0.00509917
0.0799716
-0.00355042
-0.0804962
0.0793925
-0.00390258
0.0787659
-0.00422271
0.0781013
-0.0044948
0.0774072
-0.00472037
0.0766907
-0.00490525
0.0759581
-0.00505316
0.075215
-0.00516574
0.0744667
-0.00524459
0.0737182
-0.00529154
0.0729736
-0.00530958
0.0722368
-0.00530037
0.0715107
-0.00526823
0.0707983
-0.00521211
0.0701012
-0.00514122
0.0694222
-0.00504468
0.0687605
-0.00495017
0.0681213
-0.0048108
0.0674968
-0.00472203
-0.00450618
0.0796666
-0.00305439
-0.0801627
0.0791193
-0.00335527
0.0785267
-0.00363005
0.0778969
-0.00386504
0.0772377
-0.00406118
0.0765556
-0.00422311
0.0758562
-0.0043538
0.075145
-0.00445449
0.0744268
-0.00452644
0.0737064
-0.00457109
0.0729877
-0.00459088
0.0722744
-0.00458709
0.0715695
-0.00456335
0.070876
-0.00451863
0.0701956
-0.00446084
0.0695314
-0.00438042
0.0688825
-0.00430132
0.0682546
-0.00418281
0.0676401
-0.00410755
-0.00392177
0.0794074
-0.00258107
-0.0798808
0.0788858
-0.00283362
0.0783209
-0.00306512
0.0777199
-0.00326407
0.0770898
-0.00343107
0.0764365
-0.00356978
0.0757652
-0.00368254
0.075081
-0.00377028
0.0743885
-0.00383396
0.0736921
-0.00387471
0.0729957
-0.00389447
0.0723029
-0.00389424
0.0716165
-0.00387701
0.0709397
-0.00384181
0.0702742
-0.00379531
0.0696231
-0.00372931
0.0689859
-0.00366411
0.0683681
-0.00356504
0.0677628
-0.00350228
-0.00334533
0.0791906
-0.00212563
-0.0796461
0.0786894
-0.00233244
0.0781469
-0.00252254
0.0775693
-0.00268654
0.0769631
-0.00282481
0.0763335
-0.00294024
0.0756856
-0.00303462
0.075024
-0.00310863
0.074353
-0.00316301
0.0736769
-0.00319861
0.0729994
-0.00321695
0.0723239
-0.00321879
0.0716535
-0.00320654
0.070991
-0.00317935
0.0703384
-0.00314267
0.0696987
-0.00308968
0.0690718
-0.00303713
0.0684631
-0.00295633
0.067866
-0.00290524
-0.00277606
0.0790133
-0.00168406
-0.0794549
0.0785282
-0.00184734
0.0780033
-0.00199767
0.0774445
-0.0021277
0.0768574
-0.0022377
0.076247
-0.00232988
0.075618
-0.0024056
0.0749747
-0.00246535
0.0743214
-0.00250965
0.0736619
-0.00253915
0.073
-0.002555
0.0723389
-0.00255776
0.0716817
-0.0025493
0.0710312
-0.00252892
0.0703895
-0.00250088
0.0697596
-0.0024598
0.0691413
-0.00241889
0.0685404
-0.0023554
0.0679504
-0.00231529
-0.00221301
0.0788731
-0.00125298
-0.0793042
0.0784003
-0.00137453
0.077889
-0.0014864
0.0773446
-0.0015833
0.0767724
-0.00166544
0.076177
-0.00173448
0.0755627
-0.00179138
0.0749339
-0.0018365
0.0742944
-0.00187018
0.0736482
-0.00189288
0.0729986
-0.00190543
0.0723491
-0.00190824
0.0717024
-0.00190265
0.0710617
-0.00188816
0.0704286
-0.00186786
0.0698067
-0.00183784
0.0691955
-0.00180775
0.068601
-0.00176087
0.0680169
-0.00173117
-0.00165512
0.0787679
-0.000829685
-0.0791912
0.0783042
-0.000910756
0.0778029
-0.000985146
0.0772691
-0.00104952
0.0767078
-0.00110415
0.0761235
-0.00115015
0.0755203
-0.00118816
0.0749022
-0.00121839
0.0742731
-0.00124106
0.0736366
-0.00125647
0.0729963
-0.00126514
0.0723555
-0.00126736
0.0717168
-0.00126397
0.0710833
-0.00125472
0.070457
-0.00124148
0.069841
-0.00122191
0.0692353
-0.00120202
0.0686457
-0.00117127
0.068066
-0.00115147
-0.00110125
0.0786967
-0.000411998
-0.0791144
0.0782393
-0.000453351
0.0777449
-0.00049076
0.0772183
-0.000522913
0.0766643
-0.000550176
0.0760874
-0.000573186
0.0754914
-0.000592243
0.0748805
-0.000607425
0.0742582
-0.000618822
0.0736284
-0.000626609
0.0729943
-0.00063102
0.0723592
-0.000632257
0.0717258
-0.000630624
0.0710973
-0.000626181
0.0704753
-0.000619527
0.0698635
-0.000610095
0.0692613
-0.0005998
0.0686753
-0.000585266
0.068098
-0.000574226
-0.000550792
0.0786595
-0.0790715
0.0782062
0.0777154
0.0771925
0.0766423
0.0760692
0.0754769
0.0748695
0.0742507
0.0736241
0.072993
0.0723608
0.0717302
0.071104
0.0704844
0.0698743
0.0692745
0.0686893
0.0681151
0.0677674
0.0104264
-0.0664953
0.0692435
0.0161367
0.0709238
0.0218519
0.0728104
0.0274932
0.0748719
0.033035
0.0771085
0.0383295
0.0792553
0.0435343
0.0814619
0.0478657
0.08239
0.0527596
0.053983
0.0669254
0.00927446
-0.0657735
0.068313
0.014749
0.0699317
0.0202333
0.0718037
0.0256212
0.0738591
0.0309796
0.0762061
0.0359825
0.078521
0.0412194
0.0811504
0.0452362
0.083326
0.050584
0.0524197
0.0662152
0.0082567
-0.0651975
0.0674941
0.0134701
0.0690161
0.0187113
0.0708266
0.0238107
0.0728316
0.0289746
0.075168
0.0336461
0.0776059
0.0387815
0.0803107
0.0425314
0.0831886
0.0477061
0.0501251
0.065632
0.00735665
-0.064732
0.0668077
0.0122944
0.0682366
0.0172824
0.0699686
0.0220787
0.0719319
0.0270113
0.0742078
0.0313702
0.0767353
0.0362539
0.0794184
0.0398483
0.0825336
0.0445909
0.0473521
0.0651519
0.00655253
-0.0643478
0.0662387
0.0112077
0.067593
0.0159281
0.069246
0.0204257
0.0711742
0.0250832
0.0733727
0.0291717
0.0759125
0.0337141
0.0785608
0.0372
0.0816766
0.0414751
0.0443317
0.0647508
0.00582766
-0.0640259
0.0657612
0.0101972
0.0670556
0.0146337
0.0686369
0.0188444
0.0705244
0.0231957
0.0726517
0.0270443
0.0751469
0.0312189
0.0777723
0.0345746
0.0808203
0.0384272
0.0412196
0.0644116
0.0051705
-0.0637544
0.0653561
0.00925267
0.0665984
0.0133914
0.0681195
0.0173233
0.0699611
0.0213541
0.0720364
0.024969
0.0744713
0.028784
0.077079
0.031967
0.0800534
0.0354528
0.0381008
0.0641231
0.00457261
-0.0635252
0.0650111
0.00836466
0.0662061
0.0121964
0.0676791
0.0158503
0.0694754
0.0195577
0.0715146
0.0229299
0.073893
0.0264055
0.0764775
0.0293825
0.0793879
0.0325423
0.0350092
0.0638775
0.00402714
-0.0633321
0.0647174
0.00752481
0.0658693
0.0110445
0.0673038
0.0144159
0.0690584
0.0178031
0.0710686
0.0209197
0.0733987
0.0240754
0.0759554
0.0268259
0.078814
0.0296837
0.0319531
0.0636688
0.00352803
-0.0631697
0.0644676
0.00672601
0.0655809
0.00993113
0.0669831
0.0130137
0.0687007
0.0160856
0.0706846
0.0189358
0.0729749
0.021785
0.0755039
0.0242969
0.0783207
0.0268668
0.0289319
0.0634919
0.00306956
-0.0630335
0.0642555
0.0059624
0.0653349
0.00885173
0.0667091
0.0116395
0.0683948
0.0144
0.0703546
0.016976
0.0726124
0.0195272
0.0751157
0.0217936
0.0778975
0.024085
0.0259426
0.0633428
0.00264715
-0.0629203
0.0640763
0.00522882
0.0651263
0.00780172
0.0664762
0.0102896
0.0681348
0.0127413
0.0700728
0.015038
0.0723036
0.0172964
0.0747836
0.0193136
0.0775352
0.0213334
0.0229817
0.0632179
0.00225159
-0.0628223
0.0639254
0.00452126
0.0649505
0.00677665
0.0662794
0.00896073
0.0679156
0.0111052
0.0698345
0.0131191
0.0720424
0.0150885
0.0745018
0.0168542
0.0772271
0.0186081
0.0200461
0.0631145
0.00188253
-0.0627455
0.0638002
0.00383557
0.0648044
0.00577251
0.0661153
0.00764975
0.0677328
0.00948769
0.0696353
0.0112166
0.071824
0.0128998
0.0742654
0.0144128
0.076968
0.0159055
0.0171333
0.0630305
0.00153542
-0.0626834
0.0636977
0.00316841
0.0646846
0.00478559
0.0659807
0.00635367
0.0675829
0.00788548
0.0694716
0.00932789
0.0716445
0.010727
0.0740706
0.0119867
0.0767536
0.0132225
0.0142408
0.0629637
0.00120638
-0.0626347
0.0636157
0.00251646
0.0645887
0.00381256
0.0658728
0.0050696
0.0674629
0.00629536
0.0693406
0.00745021
0.0715006
0.00856693
0.0739139
0.00957341
0.0765804
0.010556
0.0113663
0.0629124
0.000891655
-0.0625977
0.0635523
0.00187658
0.0645145
0.00285033
0.0657893
0.0037948
0.0673702
0.00471444
0.0692395
0.005581
0.0713895
0.00641684
0.0737925
0.00717043
0.0764453
0.00790322
0.00850746
0.0628751
0.000587856
-0.0625713
0.0635059
0.00124579
0.0644602
0.00189598
0.0657284
0.00252662
0.0673029
0.00313996
0.0691661
0.00371779
0.0713089
0.004274
0.073704
0.00477535
0.0763458
0.00526142
0.00566203
0.06285
0.000292352
-0.0625545
0.0634746
0.000621134
0.0644239
0.000946743
0.065688
0.00126246
0.0672587
0.00156928
0.0691184
0.00185814
0.0712565
0.00213584
0.0736461
0.00238581
0.0762796
0.00262784
0.00282728
0.062837
-0.0625447
0.0634581
0.0644049
0.0656673
0.0672366
0.0690948
0.0712306
0.0736164
0.0762443
0.0324364
0.0464538
-0.0429273
-0.0359629
0.0285696
0.0471853
-0.0433185
0.0246363
0.0481807
-0.0442474
0.0206482
0.0494574
-0.0454693
0.0165944
0.050999
-0.0469451
0.0124743
0.052828
-0.0487079
0.00834154
0.0547338
-0.050601
0.00442775
0.0553687
-0.051455
0.00131583
0.0502203
-0.0471083
0.0286434
-0.0273275
0.0292878
0.0500886
-0.0329226
0.0256479
0.0508251
0.0219851
0.0518435
0.0182866
0.0531559
0.0145295
0.054756
0.0107153
0.0566421
0.00692772
0.0585214
0.00344725
0.0588492
0.000864418
0.0528031
0.0295078
0.025963
0.0534417
-0.0293161
0.0225629
0.0542252
0.0191437
0.0552627
0.015709
0.0565906
0.0122418
0.0582233
0.00874976
0.0601342
0.0053444
0.0619268
0.00235829
0.0618353
0.000362432
0.054799
0.0298702
0.0222561
0.056495
-0.0253095
0.0191519
0.0573294
0.0160229
0.0583918
0.0128842
0.0597293
0.00973243
0.061375
0.00659291
0.0632737
0.00360506
0.0649146
0.00115736
0.064283
-0.000164955
0.0561213
0.0297053
0.0181716
0.0592371
-0.0209137
0.0153919
0.0601091
0.0125945
0.0611892
0.00979198
0.0625318
0.00699215
0.0641748
0.0042464
0.0660194
0.00173609
0.0674249
-0.000179281
0.0661984
-0.000667516
0.0566095
0.0290378
0.0137369
0.0616345
-0.0161344
0.011314
0.0625321
0.00887885
0.0636244
0.00644529
0.0649654
0.00403327
0.0665868
0.00172426
0.0683285
-0.000249311
0.0693985
-0.00135842
0.0673075
-0.00116429
0.0564154
0.0278735
0.00900034
0.0636471
-0.0110128
0.00696177
0.0645706
0.00491187
0.0656743
0.00287544
0.0670018
0.000887173
0.0685751
-0.000934177
0.0701498
-0.00227594
0.0707403
-0.00264978
0.0676813
-0.00164455
0.0554101
0.0262289
0.00400706
0.0652619
-0.00562187
0.00236301
0.0662147
0.000727492
0.0673098
-0.000895908
0.0686252
-0.00244011
0.0701193
-0.00372426
0.071434
-0.00439743
0.0714134
-0.00393869
0.0672226
-0.00208689
0.0535583
0.024142
-0.00120122
0.0665578
-9.46875e-05
-0.0024399
0.0674534
-0.00366794
0.0685378
-0.00485573
0.069813
-0.00590772
0.0711713
-0.00660248
0.0721287
-0.00652618
0.0713371
-0.00516603
0.0658624
-0.00246064
0.0508529
0.0216814
-0.00660665
0.00585838
-0.00740935
-0.00820654
-0.00893707
-0.00946311
-0.00950069
-0.00859101
-0.00627355
-0.00273681
0.042831
0.00414341
-0.0469744
0.0385412
0.00428979
0.0340854
0.00445578
0.0294457
0.00463972
0.0245968
0.0048489
0.0195054
0.00509142
0.0141419
0.00536349
0.00856724
0.00557466
0.00326957
0.00529766
0.00326957
0.0427502
0.00830237
-0.0469092
0.0384491
0.00859089
0.033987
0.00891793
0.0293458
0.0092809
0.0245003
0.00969441
0.019417
0.0101747
0.0140655
0.010715
0.00850801
0.0111322
0.00324597
0.0105597
0.00651554
0.042572
0.0124895
-0.0467591
0.0382508
0.012912
0.0337778
0.013391
0.0291348
0.0139239
0.0242963
0.0145329
0.0192293
0.0152417
0.0139053
0.016039
0.00839121
0.0166463
0.00318698
0.0157639
0.00970252
0.0422644
0.0167077
-0.0464827
0.0379216
0.0172549
0.0334385
0.0178741
0.0287977
0.0185647
0.0239741
0.0193565
0.0189353
0.0202805
0.0136555
0.0213188
0.00820824
0.0220935
0.00309724
0.0208749
0.0127998
0.0417854
0.0209508
-0.0460285
0.0374266
0.0216137
0.0329405
0.0223602
0.0283117
0.0231935
0.0235158
0.0241524
0.0185211
0.0252752
0.0133057
0.0265341
0.00795323
0.027446
0.00297299
0.0258552
0.0157728
0.0411012
0.0252041
-0.0453545
0.0367349
0.02598
0.0322549
0.0268401
0.027651
0.0277974
0.0228994
0.0289041
0.017969
0.0302055
0.012843
0.0316602
0.00761779
0.0326712
0.0028104
0.0306626
0.0185832
0.0401528
0.0294671
-0.0444158
0.0357892
0.0303436
0.031334
0.0312954
0.0267785
0.0323529
0.0220957
0.0335868
0.017256
0.0350452
0.0122502
0.036666
0.00719153
0.0377299
0.00260543
0.0352487
0.0211886
0.0389845
0.0337266
-0.043244
0.0346127
0.0347153
0.0301939
0.0357142
0.0257052
0.0368416
0.0211091
0.0381829
0.0163806
0.0397738
0.0115227
0.0415239
0.0066699
0.0425827
0.0023573
0.0395613
0.0235459
0.0372433
0.0380974
-0.0416141
0.032904
0.0390546
0.0286169
0.0400014
0.024276
0.0411825
0.0198364
0.0426224
0.0152818
0.0443284
0.0106278
0.0461779
0.00603743
0.0471731
0.00206483
0.0435339
0.0256107
0.0354952
-0.0403251
0.0312313
0.0269853
0.0226985
0.0183758
0.0139963
0.00957318
0.00529131
0.00171683
0.051566
-0.000224098
0.05179
-0.000223981
0.0520058
-0.000215769
0.0522077
-0.00020189
0.0523902
-0.000182519
0.0525479
-0.000157741
0.0526751
-0.000127195
0.0527654
-9.02476e-05
0.0528116
-4.62746e-05
0.0528062
5.48192e-06
0.0527363
6.98174e-05
0.0525939
0.000142493
0.0523682
0.000225694
0.0520459
0.000322286
0.0516111
0.00043475
0.0510456
0.000565568
0.0503281
0.000717484
0.0494325
0.000895606
0.0483338
0.00109869
0.00135938
0.0518062
-0.000438308
0.0520186
-0.00043635
0.0522211
-0.000418354
0.0524092
-0.000389922
0.0525776
-0.000350985
0.0527212
-0.000301299
0.0528341
-0.000240041
0.0529098
-0.000166033
0.0529417
-7.81813e-05
0.0529204
2.6794e-05
0.052835
0.00015524
0.0526763
0.000301174
0.0524335
0.000468491
0.0520941
0.000661674
0.0516422
0.000886701
0.0510591
0.00114866
0.0503237
0.00145283
0.0494094
0.00180992
0.0482917
0.00221645
0.00274187
0.0522794
-0.00062482
0.052464
-0.00062087
0.0526386
-0.000593003
0.0527984
-0.000549662
0.0529381
-0.000490763
0.0530527
-0.000415839
0.0531362
-0.000323611
0.0531827
-0.000212462
0.0531852
-8.07482e-05
0.0531317
8.02999e-05
0.0530143
0.000272684
0.0528229
0.00049254
0.052546
0.000745433
0.0521713
0.00103637
0.0516841
0.00137387
0.0510654
0.00176737
0.050294
0.00222428
0.049342
0.00276189
0.0481866
0.00337182
0.00416941
0.0529651
-0.00076833
0.0531056
-0.000761368
0.0532359
-0.000723304
0.053351
-0.000664768
0.0534458
-0.00058553
0.0535148
-0.000484877
0.0535523
-0.000361132
0.0535526
-0.000212675
0.0535105
-3.8684e-05
0.0534068
0.000184007
0.0532397
0.000439817
0.0529983
0.000733912
0.0526705
0.00107317
0.0522422
0.0014647
0.0516999
0.00191615
0.0510258
0.00244154
0.0501987
0.00305135
0.0491892
0.00377143
0.0479771
0.0045839
0.00566379
0.0538357
-0.000851114
0.0539141
-0.000839755
0.0539819
-0.000791105
0.0540342
-0.000717095
0.054066
-0.000617292
0.0540719
-0.000490763
0.0540468
-0.000336021
0.0539845
-0.000150443
0.0538711
7.47413e-05
0.0536992
0.000355948
0.0534636
0.000675371
0.0531534
0.00104411
0.0527565
0.0014701
0.0522585
0.00196264
0.0516433
0.00253142
0.0508927
0.00319206
0.0499892
0.00395486
0.048901
0.00485968
0.047612
0.00587292
0.00724722
0.0548579
-0.000853196
0.0548538
-0.000835708
0.054839
-0.000776263
0.0548084
-0.000686548
0.0547569
-0.000565735
0.0546788
-0.000412666
0.0545683
-0.000225539
0.0544294
-1.14868e-05
0.0542192
0.000284903
0.0539592
0.000615941
0.0536351
0.000999467
0.0532355
0.00144371
0.0527486
0.00195696
0.0521603
0.00255101
0.0514551
0.00323659
0.0506124
0.00403474
0.0496147
0.0049526
0.0484278
0.00604654
0.0470443
0.00725646
0.00893706
0.0559958
-0.000752105
0.0558868
-0.000726651
0.0557672
-0.000656652
0.0556321
-0.00055151
0.0554758
-0.000409398
0.0552941
-0.000230973
0.055093
-2.44558e-05
0.0548155
0.00026606
0.0545027
0.000597677
0.0541345
0.000984162
0.0537006
0.00143329
0.0531904
0.00195391
0.0525922
0.00255519
0.0518915
0.00325171
0.0510744
0.00405367
0.0501189
0.00499028
0.0490113
0.00606023
0.047707
0.00735085
0.0462185
0.00874488
0.0107398
0.0572121
-0.000525066
0.0569763
-0.000490772
0.0567296
-0.000410046
0.0564671
-0.000288938
0.0561889
-0.000131269
0.0558869
7.10291e-05
0.0555199
0.000342639
0.0551243
0.000661595
0.0546821
0.00103985
0.0541828
0.00148356
0.0536166
0.00199948
0.0529727
0.0025978
0.05224
0.00328781
0.0514044
0.0040874
0.0504545
0.00500354
0.0493678
0.00607695
0.0481412
0.00728684
0.0467226
0.00876947
0.0451502
0.0103172
0.012646
0.0584752
-0.000143896
0.0580846
-0.00010009
0.057697
-2.25154e-05
0.0572883
0.000119803
0.0568479
0.000309072
0.0563698
0.000549198
0.0558656
0.000846807
0.0553204
0.00120682
0.0547255
0.00163476
0.0540718
0.0021372
0.0533499
0.00272138
0.0525489
0.00339883
0.0516583
0.00417843
0.0506634
0.0050823
0.049555
0.00611194
0.0483068
0.00732517
0.0469254
0.00866817
0.045341
0.0103539
0.0436573
0.0120009
0.0146892
0.0598014
0.000426571
0.0592291
0.000472135
0.0586381
0.000568557
0.0580377
0.00072013
0.0574193
0.000927496
0.0567749
0.00119366
0.0560971
0.00152452
0.0553781
0.00192584
0.0546099
0.00240299
0.0537839
0.00296319
0.0528912
0.00361407
0.0519219
0.00436809
0.0508678
0.00523257
0.0497177
0.00623241
0.048471
0.00735862
0.0471096
0.00868653
0.0456721
0.0101057
0.0440658
0.0119602
0.0425085
0.0135583
0.0168726
0.0564888