/*--------------------------------*- C++ -*----------------------------------*\
| =========                 |                                                 |
| \\      /  F ield         | OpenFOAM: The Open Source CFD Toolbox           |
|  \\    /   O peration     | Version:  4.1                                   |
|   \\  /    A nd           | Web:      www.OpenFOAM.org                      |
|    \\/     M anipulation  |                                                 |
\*---------------------------------------------------------------------------*/
FoamFile
{
    version     2.0;
    format      ascii;
    class       volVectorField;
    location    "4.6";
    object      U;
}
// * * * * * * * * * * * * * * * * * * * * * * * * * * * * * * * * * * * * * //

dimensions      [0 1 -1 0 0 0 0];

internalField   nonuniform List<vector> 
2000
(
(-0.00877666 0.0122613 2.71377e-20)
(0.0656503 -0.0144597 0)
(0.214878 -0.0536679 4.12391e-20)
(0.408387 -0.0961345 1.7849e-20)
(0.616356 -0.134089 -3.29898e-20)
(0.811598 -0.163858 -4.07089e-20)
(0.976085 -0.184764 1.32909e-20)
(1.10164 -0.199007 0)
(1.19215 -0.20338 -7.44128e-21)
(1.23864 -0.216838 0)
(0.00431995 0.00252959 -1.34042e-20)
(0.119288 -0.0371517 1.14725e-20)
(0.316568 -0.0785577 -4.5177e-20)
(0.550823 -0.115452 -5.85448e-20)
(0.780332 -0.143133 -5.97053e-22)
(0.975448 -0.161114 1.32052e-20)
(1.1232 -0.171213 -1.2249e-20)
(1.22382 -0.176005 -8.99366e-21)
(1.28534 -0.175089 7.44127e-21)
(1.31121 -0.181524 8.73136e-21)
(0.0236486 -0.00763865 1.49225e-20)
(0.189461 -0.0575756 -1.39773e-20)
(0.438353 -0.0957932 2.27877e-20)
(0.705689 -0.122172 -1.058e-21)
(0.941331 -0.137274 1.70182e-20)
(1.12064 -0.144018 1.41973e-20)
(1.24103 -0.145721 1.14929e-20)
(1.31191 -0.145008 8.99375e-21)
(1.34692 -0.142218 5.86657e-21)
(1.3572 -0.145588 -3.91681e-21)
(0.0503058 -0.0174752 -5.87398e-22)
(0.276339 -0.0728066 -1.51653e-20)
(0.574917 -0.101621 0)
(0.861634 -0.114108 1.92714e-20)
(1.08688 -0.11696 -1.8842e-20)
(1.23876 -0.115151 0)
(1.32738 -0.111961 0)
(1.37025 -0.108986 0)
(1.38423 -0.106062 -5.8668e-21)
(1.3797 -0.108527 6.15481e-21)
(0.0850074 -0.025799 3.6299e-20)
(0.378007 -0.0794943 -1.47271e-22)
(0.71793 -0.0933322 1.37225e-20)
(1.0074 -0.0911979 1.06326e-20)
(1.20882 -0.0844094 8.6993e-21)
(1.32762 -0.0777559 6.46682e-21)
(1.38561 -0.073082 0)
(1.40531 -0.0704858 3.01262e-21)
(1.4038 -0.0694498 -8.31889e-21)
(1.39186 -0.0722894 9.81445e-21)
(0.127858 -0.0310733 -5.69901e-20)
(0.490187 -0.0744966 1.28153e-21)
(0.857842 -0.0699123 -2.68059e-20)
(1.1345 -0.0550596 2.33626e-20)
(1.30397 -0.0424727 -2.39544e-20)
(1.38941 -0.0346508 7.85505e-21)
(1.42112 -0.0312071 0)
(1.42341 -0.0308008 -3.01278e-21)
(1.41197 -0.0323095 1.75615e-21)
(1.39499 -0.0360321 -9.64784e-22)
(0.178121 -0.0315763 0)
(0.606603 -0.0556575 0)
(0.986081 -0.0320562 -1.32158e-20)
(1.23824 -0.00818201 1.23033e-20)
(1.37287 0.0061302 -7.0293e-21)
(1.42813 0.0120173 6.59956e-21)
(1.43909 0.0122616 5.43207e-21)
(1.42931 0.00934908 -5.13458e-21)
(1.41181 0.00478085 -1.10527e-22)
(1.39263 -0.000415453 1.24668e-22)
(0.234075 -0.0256674 1.07703e-20)
(0.72003 -0.022351 0)
(1.09641 0.0182874 -5.87501e-21)
(1.3171 0.046721 2.13822e-20)
(1.41789 0.0590817 -1.20979e-20)
(1.44791 0.0606893 0)
(1.4436 0.0564656 0)
(1.42605 0.049605 0)
(1.40536 0.0418747 1.91256e-21)
(1.3852 0.0348555 -1.81793e-21)
(0.293071 -0.0120788 -5.62914e-21)
(0.82363 0.0244338 -3.36832e-22)
(1.18506 0.0784479 -7.10485e-21)
(1.37158 0.107063 2.29354e-21)
(1.44203 0.114472 2.30076e-21)
(1.45223 0.110177 2.33214e-21)
(1.43744 0.100732 0)
(1.41543 0.0896076 2.63081e-22)
(1.39342 0.078643 2.68989e-21)
(1.37326 0.069325 -2.02083e-21)
(0.351801 0.00981565 0)
(0.912014 0.0824793 -4.47861e-21)
(1.25033 0.14548 0)
(1.40323 0.170484 -1.43787e-21)
(1.44811 0.170695 -1.31861e-21)
(1.44369 0.159486 -8.11062e-22)
(1.42233 0.144436 0)
(1.3983 0.128914 -2.63097e-22)
(1.37633 0.114708 -5.6372e-22)
(1.35691 0.102775 -1.05688e-21)
(-0.00840335 0.0074314 0)
(-0.0304725 0.0121926 -1.59386e-21)
(-0.0577993 0.0120982 0)
(-0.0794019 0.0096897 -2.00134e-21)
(-0.0931161 0.00599108 -6.07296e-22)
(-0.0986446 0.00149982 1.01355e-21)
(-0.096054 -0.00344721 -9.54496e-22)
(-0.0858569 -0.00854767 7.85527e-22)
(-0.0689186 -0.0133189 7.55848e-23)
(-0.0469171 -0.0170882 5.34354e-22)
(-0.00974976 0.0213864 -5.09825e-21)
(-0.0308703 0.0351391 3.15966e-21)
(-0.0548511 0.0348559 -3.04529e-21)
(-0.0721814 0.0277524 1.34127e-21)
(-0.0811177 0.016825 6.14387e-21)
(-0.0815097 0.00354463 -2.25125e-21)
(-0.0736085 -0.0111218 0)
(-0.0580053 -0.0262536 -7.82892e-22)
(-0.0354178 -0.0404696 -6.36111e-22)
(-0.0070804 -0.0516016 0)
(-0.0121847 0.0327715 3.41394e-21)
(-0.0315133 0.0539865 0)
(-0.0491513 0.053399 9.2423e-21)
(-0.0583058 0.0418926 -1.14233e-20)
(-0.0579867 0.0242077 2.75238e-21)
(-0.0483673 0.00273244 0)
(-0.0299901 -0.0210724 0)
(-0.00373094 -0.0457147 0)
(0.0297717 -0.069077 5.36258e-21)
(0.069737 -0.0874066 -5.09668e-21)
(-0.015219 0.0404685 0)
(-0.0320493 0.0667086 -7.16197e-21)
(-0.0409108 0.0653718 1.32227e-20)
(-0.0385018 0.0497191 -6.13339e-21)
(-0.0248608 0.0258484 5.47499e-21)
(-0.000759321 -0.00302222 -1.49387e-20)
(0.0328275 -0.0348734 6.3448e-22)
(0.0745598 -0.0678615 8.12623e-21)
(0.123339 -0.0995146 6.06029e-21)
(0.180162 -0.124579 -8.56394e-21)
(-0.0182974 0.0441265 7.85025e-21)
(-0.0318894 0.0721975 -1.56016e-20)
(-0.0300054 0.0691887 -2.63607e-22)
(-0.0130913 0.0493293 1.64534e-22)
(0.017529 0.0197489 5.59387e-21)
(0.0603821 -0.0155682 -1.66299e-20)
(0.113689 -0.0539797 0)
(0.175141 -0.0933892 -4.43181e-21)
(0.242169 -0.13144 3.79847e-21)
(0.320084 -0.161591 -1.17255e-20)
(-0.0209002 0.044061 -2.90132e-22)
(-0.0301038 0.0703273 1.61796e-20)
(-0.0155261 0.0641599 7.28344e-21)
(0.0188495 0.0397063 7.49348e-21)
(0.0702495 0.00479413 6.15073e-21)
(0.136 -0.0359202 5.60302e-21)
(0.213004 -0.0791809 0)
(0.297566 -0.122376 4.43146e-21)
(0.383973 -0.163791 1.09161e-20)
(0.484643 -0.19562 -4.25334e-21)
(-0.0225751 0.0410108 9.36317e-23)
(-0.0253744 0.0617716 8.84779e-21)
(0.00461424 0.0506163 0)
(0.0601197 0.021019 -1.36531e-20)
(0.136594 -0.0188221 1.35062e-20)
(0.229385 -0.0636065 0)
(0.333064 -0.109446 0)
(0.441923 -0.153084 0)
(0.546154 -0.193978 -8.52752e-21)
(0.665783 -0.222626 -1.31106e-20)
(-0.0228809 0.0358001 -1.01279e-20)
(-0.0158859 0.0477004 9.48698e-21)
(0.033665 0.0298373 1.74164e-20)
(0.115221 -0.00526116 8.21992e-22)
(0.221581 -0.0490862 1.4371e-20)
(0.344729 -0.0957671 1.29941e-20)
(0.475602 -0.140999 1.15877e-20)
(0.605665 -0.181355 1.01261e-20)
(0.722713 -0.21747 8.52681e-21)
(0.849804 -0.238252 -6.93801e-21)
(-0.021251 0.0290652 -3.39239e-20)
(0.00066223 0.0294365 -9.48842e-21)
(0.0757305 0.00378323 -3.54092e-20)
(0.189362 -0.0363121 -1.60363e-20)
(0.329854 -0.0820322 6.80946e-22)
(0.483816 -0.12724 -1.23982e-20)
(0.637663 -0.167805 1.23411e-20)
(0.779989 -0.201451 -1.01254e-20)
(0.901008 -0.228675 8.51414e-21)
(1.01792 -0.239921 -1.37469e-20)
(-0.0168958 0.0211633 2.30517e-20)
(0.0269246 0.00827555 0)
(0.13503 -0.0250472 1.85282e-20)
(0.286718 -0.0681661 -1.22683e-22)
(0.462832 -0.11225 6.79104e-22)
(0.642862 -0.151724 1.28428e-20)
(0.809348 -0.183646 -3.65866e-20)
(0.950214 -0.208149 0)
(1.06271 -0.223491 -8.51372e-21)
(1.15093 -0.23 0)
(-0.0235495 -0.0190589 0)
(0.00143097 -0.0212318 -1.99767e-22)
(0.0293048 -0.0233443 2.88327e-22)
(0.0598421 -0.0251659 -8.17435e-23)
(0.0926533 -0.0266413 0)
(0.127338 -0.0277796 -2.20747e-22)
(0.163505 -0.0285964 2.21841e-22)
(0.200781 -0.0291103 0)
(0.238805 -0.0293455 0)
(0.277244 -0.0293312 -5.61886e-23)
(0.315793 -0.0290998 0)
(0.354184 -0.0286854 0)
(0.392182 -0.0281222 0)
(0.429593 -0.0274449 0)
(0.46624 -0.0266882 1.11763e-22)
(0.50211 -0.0258863 -1.12343e-22)
(0.536739 -0.0250779 0)
(0.571709 -0.0242762 2.96926e-23)
(0.601251 -0.0236104 -2.98488e-23)
(0.645878 -0.0228165 0)
(0.0198734 -0.057568 0)
(0.045166 -0.0637753 8.39943e-23)
(0.073191 -0.0698522 0)
(0.103749 -0.0751096 4.8422e-23)
(0.136256 -0.0793538 -5.73727e-23)
(0.170294 -0.082604 -2.84933e-23)
(0.205521 -0.0849079 5.51148e-22)
(0.241607 -0.0863209 -1.32502e-21)
(0.278225 -0.0869143 1.42902e-21)
(0.315072 -0.0867751 -8.68654e-22)
(0.351875 -0.0860006 -9.61204e-22)
(0.388395 -0.0846925 1.83181e-21)
(0.424426 -0.082953 -9.89036e-22)
(0.459804 -0.0808846 -5.83101e-22)
(0.49437 -0.0785908 4.68673e-22)
(0.528148 -0.0761675 -9.89947e-23)
(0.560643 -0.0737404 -8.43698e-23)
(0.593536 -0.0713067 -1.13631e-22)
(0.620993 -0.0693377 1.14182e-22)
(0.662884 -0.0668354 -2.07021e-23)
(0.10253 -0.0966367 -1.33686e-22)
(0.129091 -0.106245 -8.41386e-23)
(0.157039 -0.115701 -7.42337e-23)
(0.187341 -0.123843 0)
(0.219074 -0.130344 1.13563e-22)
(0.251715 -0.135239 -8.66411e-23)
(0.284996 -0.138613 0)
(0.318676 -0.140558 1.30813e-22)
(0.352495 -0.14119 8.97733e-23)
(0.386209 -0.140651 -1.44463e-21)
(0.419605 -0.139104 -1.16569e-22)
(0.452501 -0.136717 1.99343e-21)
(0.484748 -0.133661 1.09134e-22)
(0.516234 -0.1301 1.15907e-22)
(0.546836 -0.126207 1.00965e-22)
(0.576642 -0.122123 -2.53322e-22)
(0.605133 -0.118075 2.25515e-22)
(0.634064 -0.113969 2.89808e-22)
(0.657784 -0.11073 7.02881e-23)
(0.694445 -0.106374 8.26343e-24)
(0.21875 -0.135731 -4.07322e-21)
(0.246749 -0.147982 9.78808e-22)
(0.274137 -0.159987 1.09182e-21)
(0.303475 -0.170181 2.24207e-21)
(0.333629 -0.178167 8.66526e-23)
(0.363884 -0.184018 -1.17721e-23)
(0.394053 -0.187859 1.20275e-21)
(0.424021 -0.189815 -3.5529e-22)
(0.453635 -0.190039 -9.48324e-22)
(0.482733 -0.188725 1.47596e-21)
(0.511183 -0.186098 1.33016e-22)
(0.538886 -0.182393 -1.85084e-21)
(0.565769 -0.177846 -1.08224e-22)
(0.591795 -0.172681 -9.75799e-22)
(0.616893 -0.167136 6.87182e-22)
(0.641219 -0.161371 6.35974e-22)
(0.66427 -0.155738 -5.7562e-22)
(0.687769 -0.149971 0)
(0.70661 -0.145515 -1.09178e-22)
(0.736184 -0.139283 -1.78106e-23)
(0.362166 -0.173417 1.12962e-20)
(0.390885 -0.187357 -3.71833e-21)
(0.416633 -0.200976 4.03194e-21)
(0.443649 -0.212258 0)
(0.470871 -0.220844 -7.13671e-23)
(0.497371 -0.22689 -1.37973e-22)
(0.523007 -0.230557 8.29006e-22)
(0.547816 -0.231982 6.84637e-22)
(0.571771 -0.231349 -1.34226e-21)
(0.594815 -0.228903 -1.50054e-22)
(0.616916 -0.224926 0)
(0.638076 -0.219714 1.85828e-22)
(0.658314 -0.213568 0)
(0.677678 -0.206759 1.887e-22)
(0.696166 -0.199592 0)
(0.71398 -0.192214 0)
(0.730704 -0.185126 -1.36523e-22)
(0.747836 -0.177804 1.64958e-22)
(0.761274 -0.172283 -1.42599e-22)
(0.782705 -0.164262 4.53832e-23)
(0.525893 -0.206879 0)
(0.553131 -0.221628 -3.08728e-22)
(0.575562 -0.236014 -7.24755e-21)
(0.598382 -0.247517 7.03935e-21)
(0.62083 -0.255933 -1.45646e-22)
(0.641866 -0.261549 0)
(0.661366 -0.264525 1.00335e-22)
(0.679495 -0.264995 -8.96746e-22)
(0.696362 -0.263178 8.6971e-22)
(0.712034 -0.25937 9.09513e-23)
(0.726596 -0.253912 1.16342e-22)
(0.740164 -0.247157 1.33487e-22)
(0.752864 -0.239464 0)
(0.764821 -0.231137 -1.05696e-21)
(0.776119 -0.222541 2.45493e-21)
(0.786947 -0.213773 -1.11648e-21)
(0.797073 -0.205496 1.05932e-22)
(0.807515 -0.196871 8.16962e-23)
(0.815623 -0.190541 -3.88799e-23)
(0.828716 -0.181001 3.81056e-23)
(0.700859 -0.232626 1.34327e-20)
(0.723167 -0.247495 0)
(0.740202 -0.261913 -2.97755e-22)
(0.756868 -0.273 4.3963e-22)
(0.772628 -0.28079 3.15323e-22)
(0.786486 -0.285644 1.11436e-22)
(0.798337 -0.287669 5.73685e-23)
(0.808434 -0.287 3.46711e-22)
(0.817026 -0.283909 -4.51416e-22)
(0.824329 -0.278756 -1.59844e-21)
(0.830574 -0.271939 1.32378e-21)
(0.835991 -0.263855 -2.42176e-22)
(0.840812 -0.254915 1.04695e-21)
(0.845219 -0.245431 -1.52571e-22)
(0.849387 -0.235816 -1.28542e-21)
(0.853401 -0.226078 -1.08284e-22)
(0.8573 -0.21704 1.48562e-22)
(0.861381 -0.207521 -1.78365e-22)
(0.864737 -0.200727 -2.88853e-22)
(0.870107 -0.190096 -1.56431e-23)
(0.874205 -0.247453 0)
(0.888483 -0.26213 -1.09284e-20)
(0.898436 -0.275937 1.11794e-20)
(0.90749 -0.286303 -2.32113e-22)
(0.915064 -0.293434 -3.52724e-22)
(0.920403 -0.297544 -1.11332e-22)
(0.92349 -0.298679 -1.31374e-22)
(0.924661 -0.297032 0)
(0.924335 -0.292943 3.23475e-23)
(0.922919 -0.286824 6.58354e-23)
(0.920796 -0.279109 7.27493e-23)
(0.918279 -0.270214 1.99907e-22)
(0.915669 -0.260565 0)
(0.913142 -0.25046 0)
(0.910953 -0.240361 1.16492e-22)
(0.908993 -0.230175 9.36874e-22)
(0.907618 -0.220868 -6.44076e-22)
(0.906248 -0.21093 6.12668e-23)
(0.905791 -0.204044 1.37384e-22)
(0.904668 -0.192809 -3.83146e-23)
(1.03084 -0.250694 1.43182e-20)
(1.03686 -0.265496 0)
(1.03924 -0.278493 0)
(1.0397 -0.28835 -6.97242e-21)
(1.038 -0.295029 1.97927e-21)
(1.03394 -0.298497 8.50122e-21)
(1.02775 -0.298923 -3.31322e-21)
(1.01991 -0.29664 0)
(1.01102 -0.292037 0)
(1.00164 -0.285517 0)
(0.992209 -0.277506 -4.2205e-23)
(0.983033 -0.268398 -1.28111e-22)
(0.974386 -0.258614 -1.52325e-21)
(0.966329 -0.248408 1.46668e-21)
(0.95916 -0.238288 -7.29814e-22)
(0.95253 -0.228066 6.32954e-22)
(0.947153 -0.21885 0)
(0.941534 -0.208851 -3.23929e-23)
(0.938307 -0.202134 -3.77049e-23)
(0.93218 -0.190712 0)
(1.16063 -0.245833 -2.13248e-22)
(1.16124 -0.259131 -1.07114e-20)
(1.15521 -0.27023 1.05997e-20)
(1.14541 -0.278985 0)
(1.13353 -0.284769 4.96885e-21)
(1.1201 -0.287554 -8.27856e-21)
(1.10541 -0.287678 3.32635e-21)
(1.08999 -0.285475 0)
(1.07443 -0.281241 -2.39747e-22)
(1.0592 -0.27528 9.15147e-22)
(1.04464 -0.267948 -7.00277e-22)
(1.03089 -0.259572 3.78208e-23)
(1.01814 -0.25054 0)
(1.0063 -0.241031 1.40949e-21)
(0.995707 -0.23154 -1.99942e-21)
(0.985759 -0.221789 6.41881e-22)
(0.977564 -0.213009 4.65294e-22)
(0.968788 -0.203234 -3.22567e-22)
(0.963623 -0.196812 -1.63022e-22)
(0.953754 -0.185448 0)
(1.27147 -0.217634 0)
(1.25767 -0.228713 0)
(1.23717 -0.23774 0)
(1.21551 -0.245914 0)
(1.19478 -0.252579 0)
(1.17476 -0.257121 0)
(1.15496 -0.259422 0)
(1.13541 -0.259634 0)
(1.11638 -0.257975 0)
(1.09814 -0.254652 0)
(1.08087 -0.249908 0)
(1.06459 -0.243959 0)
(1.04947 -0.237126 0)
(1.03534 -0.229511 0)
(1.02263 -0.221608 0)
(1.01052 -0.213091 0)
(1.00045 -0.205249 0)
(0.989445 -0.196107 0)
(0.982889 -0.190032 0)
(0.970207 -0.17886 0)
(1.29791 -0.196438 0)
(1.28456 -0.209137 0)
(1.26289 -0.219526 0)
(1.23975 -0.228112 0)
(1.21804 -0.234757 0)
(1.19742 -0.239229 0)
(1.17717 -0.241536 0)
(1.15715 -0.241867 0)
(1.13765 -0.240469 0)
(1.11893 -0.237569 0)
(1.10115 -0.233406 0)
(1.08432 -0.228173 0)
(1.06862 -0.22215 0)
(1.05383 -0.215419 0)
(1.04041 -0.208439 0)
(1.02743 -0.200881 0)
(1.01656 -0.193939 0)
(1.00442 -0.18574 0)
(0.997198 -0.180339 0)
(0.982775 -0.170162 0)
(1.3081 -0.174785 0)
(1.29494 -0.18802 0)
(1.27375 -0.198824 0)
(1.25097 -0.207284 0)
(1.22956 -0.213681 0)
(1.2093 -0.218148 0)
(1.18941 -0.220761 0)
(1.1697 -0.221645 0)
(1.15045 -0.22098 0)
(1.1319 -0.218949 0)
(1.11424 -0.215756 0)
(1.09744 -0.211558 0)
(1.08169 -0.206601 0)
(1.06673 -0.200944 0)
(1.05308 -0.195007 0)
(1.03973 -0.188461 0)
(1.02851 -0.182415 0)
(1.01576 -0.175115 0)
(1.0082 -0.170327 0)
(0.992826 -0.16101 0)
(1.30648 -0.154922 0)
(1.2943 -0.168027 0)
(1.27468 -0.178818 0)
(1.25328 -0.187194 0)
(1.23295 -0.193539 0)
(1.21366 -0.198134 0)
(1.1947 -0.201088 0)
(1.17587 -0.202481 0)
(1.1574 -0.202447 0)
(1.13952 -0.201145 0)
(1.12241 -0.198761 0)
(1.10605 -0.195432 0)
(1.09062 -0.191379 0)
(1.07585 -0.186641 0)
(1.06229 -0.1816 0)
(1.0489 -0.175936 0)
(1.0376 -0.170674 0)
(1.02458 -0.164176 0)
(1.01688 -0.159926 0)
(1.001 -0.151408 0)
(1.29848 -0.137419 0)
(1.2876 -0.149912 0)
(1.26992 -0.160366 0)
(1.25035 -0.168546 0)
(1.23152 -0.174798 0)
(1.21351 -0.179435 0)
(1.19577 -0.182593 0)
(1.17809 -0.184344 0)
(1.16066 -0.184797 0)
(1.14369 -0.184086 0)
(1.12736 -0.182377 0)
(1.11164 -0.179786 0)
(1.09673 -0.17651 0)
(1.08235 -0.17257 0)
(1.06908 -0.168312 0)
(1.05584 -0.163429 0)
(1.04464 -0.158864 0)
(1.03158 -0.153096 0)
(1.02388 -0.149334 0)
(1.00778 -0.14158 0)
(1.28817 -0.122069 0)
(1.27843 -0.133703 0)
(1.26265 -0.143605 0)
(1.24497 -0.151449 0)
(1.22772 -0.15751 0)
(1.21108 -0.162093 0)
(1.19459 -0.165345 0)
(1.17811 -0.167337 0)
(1.16178 -0.168158 0)
(1.14578 -0.167917 0)
(1.1303 -0.16676 0)
(1.1153 -0.164784 0)
(1.101 -0.162161 0)
(1.0871 -0.158902 0)
(1.07422 -0.155318 0)
(1.06124 -0.151118 0)
(1.05024 -0.147164 0)
(1.03727 -0.142053 0)
(1.02965 -0.13873 0)
(1.01353 -0.131692 0)
(1.27772 -0.108594 0)
(1.26886 -0.119252 0)
(1.25476 -0.12846 0)
(1.23882 -0.13585 0)
(1.22307 -0.141633 0)
(1.20771 -0.146079 0)
(1.19241 -0.149335 0)
(1.17705 -0.151465 0)
(1.16177 -0.152544 0)
(1.14672 -0.152661 0)
(1.13206 -0.151939 0)
(1.11778 -0.150462 0)
(1.10409 -0.148379 0)
(1.09069 -0.145692 0)
(1.07823 -0.142682 0)
(1.06557 -0.139074 0)
(1.05482 -0.135655 0)
(1.04202 -0.131133 0)
(1.03451 -0.128203 0)
(1.01849 -0.121835 0)
(1.26808 -0.0966735 0)
(1.25988 -0.106306 0)
(1.24719 -0.114737 0)
(1.23277 -0.121594 0)
(1.21834 -0.127029 0)
(1.20413 -0.131273 0)
(1.1899 -0.134456 0)
(1.17555 -0.136638 0)
(1.16122 -0.13788 0)
(1.14703 -0.138256 0)
(1.13314 -0.13787 0)
(1.11953 -0.136791 0)
(1.10642 -0.135151 0)
(1.09352 -0.132944 0)
(1.08147 -0.130421 0)
(1.06914 -0.127326 0)
(1.05866 -0.124373 0)
(1.04606 -0.120381 0)
(1.0387 -0.117803 0)
(1.02284 -0.112062 0)
(1.25956 -0.0859728 0)
(1.25182 -0.0945877 0)
(1.24028 -0.102215 0)
(1.22716 -0.108496 0)
(1.21388 -0.113536 0)
(1.20068 -0.117524 0)
(1.18738 -0.120575 0)
(1.17393 -0.122738 0)
(1.16043 -0.124067 0)
(1.14701 -0.124621 0)
(1.13382 -0.124487 0)
(1.12082 -0.123724 0)
(1.10825 -0.122443 0)
(1.09581 -0.120637 0)
(1.08415 -0.118527 0)
(1.07214 -0.115878 0)
(1.06193 -0.113334 0)
(1.04956 -0.10982 0)
(1.04235 -0.107558 0)
(1.02669 -0.102405 0)
(1.25216 -0.0762282 0)
(1.24474 -0.0838691 0)
(1.23414 -0.090698 0)
(1.22211 -0.0963838 0)
(1.20981 -0.100997 0)
(1.19748 -0.104691 0)
(1.18499 -0.107562 0)
(1.17231 -0.109653 0)
(1.15956 -0.111006 0)
(1.14682 -0.111671 0)
(1.13424 -0.111722 0)
(1.1218 -0.111203 0)
(1.10971 -0.110214 0)
(1.0977 -0.108741 0)
(1.0864 -0.106983 0)
(1.07471 -0.104721 0)
(1.06475 -0.102536 0)
(1.05261 -0.0994564 0)
(1.04555 -0.0974804 0)
(1.03012 -0.0928824 0)
(1.24577 -0.0672493 0)
(1.23857 -0.0739691 0)
(1.22873 -0.0800206 0)
(1.21761 -0.0851065 0)
(1.20615 -0.0892732 0)
(1.19456 -0.0926457 0)
(1.18277 -0.0953019 0)
(1.17077 -0.0972772 0)
(1.15866 -0.0986061 0)
(1.14652 -0.0993286 0)
(1.13449 -0.0995056 0)
(1.12254 -0.0991738 0)
(1.11089 -0.0984181 0)
(1.09926 -0.097223 0)
(1.08831 -0.0957637 0)
(1.0769 -0.0938413 0)
(1.06719 -0.091974 0)
(1.05527 -0.0892895 0)
(1.04836 -0.087573 0)
(1.03315 -0.0835 0)
(1.24026 -0.0588853 0)
(1.23321 -0.064737 0)
(1.224 -0.0700397 0)
(1.21364 -0.0745318 0)
(1.20289 -0.0782439 0)
(1.19193 -0.081276 0)
(1.18075 -0.0836913 0)
(1.16933 -0.0855178 0)
(1.15778 -0.086783 0)
(1.14616 -0.087519 0)
(1.13461 -0.0877762 0)
(1.12309 -0.0875835 0)
(1.11184 -0.0870135 0)
(1.10056 -0.0860496 0)
(1.08991 -0.084845 0)
(1.07878 -0.0832209 0)
(1.06929 -0.0816348 0)
(1.05758 -0.079313 0)
(1.05081 -0.0778331 0)
(1.03583 -0.0742586 0)
(1.23556 -0.0510127 0)
(1.22861 -0.0560478 0)
(1.21989 -0.0606341 0)
(1.21017 -0.0645454 0)
(1.20002 -0.0678013 0)
(1.1896 -0.0704819 0)
(1.17892 -0.0726375 0)
(1.168 -0.0742898 0)
(1.15693 -0.0754605 0)
(1.14577 -0.0761749 0)
(1.13464 -0.0764744 0)
(1.1235 -0.0763816 0)
(1.1126 -0.0759577 0)
(1.10163 -0.0751861 0)
(1.09125 -0.0741993 0)
(1.08036 -0.0728388 0)
(1.07108 -0.0715037 0)
(1.05957 -0.0695164 0)
(1.05293 -0.0682534 0)
(1.03817 -0.0651539 0)
(1.23157 -0.0435319 0)
(1.22468 -0.0477985 0)
(1.21638 -0.0517012 0)
(1.20717 -0.0550478 0)
(1.19751 -0.0578508 0)
(1.18755 -0.0601738 0)
(1.1773 -0.0620566 0)
(1.16681 -0.0635157 0)
(1.15614 -0.064568 0)
(1.14537 -0.065233 0)
(1.1346 -0.0655443 0)
(1.12379 -0.0655194 0)
(1.11319 -0.0652092 0)
(1.10249 -0.0645979 0)
(1.09236 -0.0637981 0)
(1.08169 -0.0626724 0)
(1.07259 -0.0615626 0)
(1.06127 -0.0598859 0)
(1.05474 -0.0588231 0)
(1.04018 -0.0561781 0)
(1.22825 -0.0363616 0)
(1.22139 -0.0399028 0)
(1.21341 -0.0431526 0)
(1.20463 -0.0459514 0)
(1.19538 -0.0483073 0)
(1.18578 -0.0502704 0)
(1.17589 -0.0518719 0)
(1.16575 -0.0531239 0)
(1.15543 -0.0540393 0)
(1.14498 -0.0546331 0)
(1.13451 -0.0549319 0)
(1.12399 -0.0549493 0)
(1.11364 -0.0547265 0)
(1.10318 -0.0542495 0)
(1.09326 -0.0536116 0)
(1.08278 -0.0526967 0)
(1.07384 -0.0517911 0)
(1.06268 -0.0504049 0)
(1.05626 -0.0495282 0)
(1.04188 -0.04732 0)
(1.22553 -0.0294334 0)
(1.2187 -0.0322863 0)
(1.21098 -0.0349104 0)
(1.20253 -0.0371778 0)
(1.1936 -0.0390938 0)
(1.1843 -0.0406973 0)
(1.1747 -0.0420122 0)
(1.16485 -0.0430473 0)
(1.15481 -0.0438121 0)
(1.14462 -0.0443179 0)
(1.13441 -0.0445855 0)
(1.12412 -0.0446248 0)
(1.11398 -0.0444687 0)
(1.10372 -0.044105 0)
(1.09397 -0.0436088 0)
(1.08365 -0.0428854 0)
(1.07485 -0.0421667 0)
(1.06383 -0.0410545 0)
(1.0575 -0.0403524 0)
(1.04327 -0.038566 0)
(1.22339 -0.0226923 0)
(1.21657 -0.0248872 0)
(1.20904 -0.026908 0)
(1.20086 -0.0286579 0)
(1.19217 -0.0301409 0)
(1.18311 -0.0313862 0)
(1.17373 -0.0324115 0)
(1.1641 -0.0332229 0)
(1.15428 -0.0338272 0)
(1.14431 -0.0342327 0)
(1.13429 -0.0344547 0)
(1.12419 -0.0345005 0)
(1.11422 -0.0343948 0)
(1.10412 -0.0341283 0)
(1.09451 -0.0337578 0)
(1.08432 -0.0332109 0)
(1.07564 -0.0326651 0)
(1.06473 -0.0318141 0)
(1.05847 -0.0312769 0)
(1.04437 -0.0299006 0)
(1.22178 -0.0161021 0)
(1.21497 -0.0176607 0)
(1.20758 -0.019094 0)
(1.19959 -0.0203356 0)
(1.1911 -0.0213897 0)
(1.1822 -0.0222773 0)
(1.17299 -0.0230105 0)
(1.16353 -0.0235932 0)
(1.15387 -0.0240296 0)
(1.14406 -0.0243255 0)
(1.13419 -0.0244911 0)
(1.12422 -0.024532 0)
(1.11439 -0.0244645 0)
(1.1044 -0.0242831 0)
(1.0949 -0.024026 0)
(1.08481 -0.0236447 0)
(1.07621 -0.0232602 0)
(1.06539 -0.0226621 0)
(1.05919 -0.0222803 0)
(1.04519 -0.0213072 0)
(1.22069 -0.0095883 0)
(1.21389 -0.0105361 0)
(1.2066 -0.0114005 0)
(1.19874 -0.0121457 0)
(1.19037 -0.0127772 0)
(1.18159 -0.0133094 0)
(1.17249 -0.0137499 0)
(1.16314 -0.0141009 0)
(1.15359 -0.0143647 0)
(1.14388 -0.0145447 0)
(1.13411 -0.0146467 0)
(1.12424 -0.0146746 0)
(1.11449 -0.0146369 0)
(1.10458 -0.0145324 0)
(1.09515 -0.0143797 0)
(1.08513 -0.0141571 0)
(1.07658 -0.0139244 0)
(1.06583 -0.013576 0)
(1.05966 -0.0133385 0)
(1.04573 -0.0127689 0)
(1.22009 -0.00308448 0)
(1.21332 -0.00344131 0)
(1.20611 -0.0037542 0)
(1.19832 -0.00401717 0)
(1.19001 -0.00423625 0)
(1.18128 -0.00441885 0)
(1.17224 -0.004569 0)
(1.16294 -0.00468823 0)
(1.15345 -0.00477763 0)
(1.14379 -0.00483877 0)
(1.13407 -0.00487355 0)
(1.12424 -0.00488376 0)
(1.11454 -0.00487159 0)
(1.10467 -0.00483789 0)
(1.09527 -0.00478673 0)
(1.08529 -0.00471457 0)
(1.07676 -0.00463507 0)
(1.06605 -0.00452322 0)
(1.05989 -0.00443904 0)
(1.046 -0.00425568 0)
(1.33966 0.0902439 1.0326e-21)
(1.355 0.0630349 0)
(1.36668 0.0343885 -1.11576e-22)
(1.37456 0.00437761 -3.36903e-21)
(1.37865 -0.0267639 1.89154e-22)
(1.37825 -0.0589635 0)
(1.37407 -0.0920452 -5.08063e-21)
(1.35768 -0.126569 0)
(1.34503 -0.159522 -9.11321e-21)
(1.27604 -0.200492 1.2795e-22)
(1.32413 0.0788935 -1.39826e-21)
(1.33794 0.0550986 2.25132e-22)
(1.34888 0.0300399 -2.25568e-22)
(1.35565 0.0038022 -1.63087e-21)
(1.36098 -0.0234658 -3.42621e-21)
(1.3594 -0.0519778 -1.279e-22)
(1.36198 -0.0804664 0)
(1.34477 -0.112845 1.27024e-22)
(1.35086 -0.138359 0)
(1.3017 -0.181356 3.94991e-21)
(1.31155 0.0682513 2.95773e-21)
(1.3232 0.0471385 0)
(1.33322 0.0250891 -2.12273e-22)
(1.33818 0.00182498 -1.24515e-21)
(1.34455 -0.0216579 3.55883e-21)
(1.34117 -0.0473528 0)
(1.34768 -0.070492 5.00136e-21)
(1.33173 -0.101078 -4.61729e-23)
(1.34133 -0.119798 0)
(1.31234 -0.160503 -3.90964e-21)
(1.30135 0.0590491 -1.37313e-21)
(1.31104 0.040226 5.53962e-21)
(1.3201 0.021009 0)
(1.32346 0.000211779 6.61545e-21)
(1.32998 -0.0196478 3.17262e-22)
(1.32595 -0.0431238 -5.55838e-22)
(1.33262 -0.0617025 -4.66455e-21)
(1.32045 -0.0901893 -1.67448e-22)
(1.3262 -0.105127 -3.78627e-21)
(1.31073 -0.141119 0)
(1.29291 0.0510761 0)
(1.30109 0.0342786 -5.40563e-21)
(1.30909 0.0175998 -5.98097e-21)
(1.31148 -0.00111171 7.75732e-22)
(1.31708 -0.0179442 -4.84012e-22)
(1.31353 -0.0393674 -3.15275e-22)
(1.3179 -0.0548728 -9.51088e-21)
(1.30967 -0.0805775 -4.28683e-22)
(1.31081 -0.0937968 -2.22245e-21)
(1.30242 -0.124491 4.34397e-21)
(1.28578 0.0441021 1.92401e-21)
(1.29286 0.0291116 3.79037e-22)
(1.29969 0.0145761 -1.17391e-21)
(1.30166 -0.0022438 3.24546e-22)
(1.30575 -0.0167857 -8.57088e-21)
(1.3031 -0.0360484 0)
(1.30476 -0.0496395 1.03643e-20)
(1.29925 -0.0720953 -3.15058e-22)
(1.29746 -0.0843082 1.43829e-20)
(1.29197 -0.110245 -1.0785e-20)
(1.2797 0.0379604 -1.93348e-21)
(1.28596 0.024624 -3.57242e-21)
(1.29161 0.0118642 5.85571e-21)
(1.29342 -0.00312756 -1.03217e-20)
(1.29601 -0.0159433 -1.51658e-21)
(1.29411 -0.0329347 -8.16487e-21)
(1.29376 -0.0451968 3.776e-22)
(1.28963 -0.0644699 -6.92417e-22)
(1.28638 -0.0758282 -7.88809e-21)
(1.28161 -0.0978794 6.42029e-21)
(1.27454 0.0325426 0)
(1.2801 0.0207434 7.78444e-21)
(1.28469 0.00947484 -8.1358e-22)
(1.28635 -0.00374798 5.4743e-21)
(1.28777 -0.0151785 -8.0231e-22)
(1.28625 -0.029967 1.66501e-20)
(1.28472 -0.0411363 -7.32943e-21)
(1.281 -0.0576461 0)
(1.27706 -0.0681496 0)
(1.27219 -0.0870395 0)
(1.27016 0.0277721 0)
(1.27509 0.0173964 -7.25637e-21)
(1.27881 0.00741914 -4.55178e-22)
(1.28024 -0.00414883 5.88835e-21)
(1.28083 -0.0143811 1.03217e-20)
(1.27934 -0.0271849 -9.53807e-21)
(1.27715 -0.0373381 8.83945e-21)
(1.2734 -0.0515372 -4.77083e-22)
(1.26912 -0.0611339 0)
(1.26394 -0.0773815 5.6814e-21)
(1.26647 0.0235803 2.6581e-22)
(1.27082 0.0145105 4.16329e-21)
(1.27382 0.00568988 6.43417e-21)
(1.27495 -0.0043746 -3.34462e-22)
(1.27496 -0.013508 7.53584e-22)
(1.27331 -0.0245786 -1.09532e-20)
(1.27073 -0.0337276 1.02919e-20)
(1.2668 -0.0459683 -5.18149e-22)
(1.26231 -0.0546229 0)
(1.25685 -0.0686188 -1.19084e-20)
(1.26338 0.0199011 0)
(1.26718 0.0120199 4.22514e-21)
(1.26961 0.00426445 2.5403e-22)
(1.2704 -0.00444874 0)
(1.26998 -0.0125397 0)
(1.2681 -0.0220942 9.72509e-21)
(1.26525 -0.0302445 -8.53466e-21)
(1.26113 -0.0407904 -4.96553e-22)
(1.25646 -0.0485092 2.70658e-22)
(1.25078 -0.060556 6.43764e-21)
(1.26078 0.0167069 0)
(1.26409 0.00989029 -8.08131e-21)
(1.26605 0.00312365 -8.62197e-21)
(1.26651 -0.00437614 1.29067e-21)
(1.26576 -0.0114696 -8.23616e-22)
(1.26365 -0.0196809 -6.65295e-22)
(1.26057 -0.0268551 1.24963e-21)
(1.25628 -0.0359087 7.99517e-21)
(1.25144 -0.0427199 7.54019e-22)
(1.24559 -0.0530496 -2.3039e-22)
(1.25859 0.0138715 0)
(1.26148 0.00805467 4.36955e-21)
(1.26306 0.00222826 -4.77757e-22)
(1.26323 -0.00416792 4.73797e-22)
(1.2622 -0.0103051 0)
(1.25988 -0.0173072 0)
(1.2566 -0.0235388 0)
(1.25217 -0.031255 -9.06648e-21)
(1.24716 -0.0371898 8.49348e-21)
(1.24117 -0.045982 0)
(1.25682 0.0113361 0)
(1.25933 0.00646978 2.81984e-21)
(1.26058 0.00154293 3.60824e-21)
(1.26049 -0.00383655 4.6434e-21)
(1.25923 -0.00905726 -8.7735e-22)
(1.25673 -0.0149529 5.38182e-21)
(1.25328 -0.020277 -4.77226e-21)
(1.24872 -0.0267743 0)
(1.24355 -0.0318626 6.18363e-22)
(1.23744 -0.0392587 -8.11071e-21)
(1.25539 0.00912072 -6.33745e-22)
(1.25758 0.00512264 -2.28958e-21)
(1.25856 0.00104467 -4.6653e-21)
(1.25825 -0.003391 -3.2685e-21)
(1.25679 -0.00773429 0)
(1.25414 -0.012604 -6.83961e-21)
(1.25054 -0.0170537 6.85728e-21)
(1.24588 -0.0224244 -6.5026e-22)
(1.24057 -0.0266936 -4.21695e-21)
(1.23435 -0.0328043 1.1825e-20)
(1.25425 0.0071477 6.37004e-22)
(1.25619 0.00396283 -1.79583e-21)
(1.25694 0.000696593 1.59381e-21)
(1.25645 -0.0028494 -3.9097e-21)
(1.25483 -0.00634812 0)
(1.25206 -0.0102536 0)
(1.24833 -0.0138579 6.80494e-22)
(1.24358 -0.0181732 -6.41724e-21)
(1.23815 -0.021647 -3.89103e-21)
(1.23185 -0.0265571 -4.00219e-21)
(1.25339 0.00536772 0)
(1.25512 0.00295485 2.94188e-21)
(1.25569 0.00046843 -1.06635e-21)
(1.25506 -0.00223132 3.48898e-21)
(1.25332 -0.00491388 9.31641e-22)
(1.25045 -0.00790291 -7.71541e-22)
(1.24662 -0.0106859 1.44688e-21)
(1.2418 -0.0139996 4.4446e-21)
(1.23626 -0.016697 0)
(1.22988 -0.0204688 0)
(1.25277 0.00374464 0)
(1.25434 0.00207122 1.20833e-21)
(1.25477 0.000336656 -2.19202e-21)
(1.25404 -0.00155278 0)
(1.25221 -0.00344446 -1.81616e-21)
(1.24927 -0.00555534 -7.82224e-22)
(1.24537 -0.00753804 -2.17706e-21)
(1.24049 -0.00989269 -6.28766e-22)
(1.23486 -0.0118301 3.28898e-22)
(1.22841 -0.0145115 2.72033e-22)
(1.25236 0.00224848 0)
(1.25382 0.00129584 -1.21416e-21)
(1.25417 0.000302395 -1.09125e-21)
(1.25337 -0.00079269 1.49721e-21)
(1.25147 -0.00190346 8.66755e-22)
(1.24849 -0.00315699 8.24093e-22)
(1.24454 -0.0043503 3.64155e-21)
(1.23962 -0.0057759 -2.64239e-21)
(1.23392 -0.00696829 6.12652e-22)
(1.22741 -0.00860526 0)
(1.25214 0.000717172 0)
(1.25355 0.00049612 5.93309e-22)
(1.25386 0.000251234 -5.65989e-22)
(1.25302 -4.47189e-05 5.33011e-22)
(1.2511 -0.000366275 0)
(1.24809 -0.00075739 -8.28262e-22)
(1.24411 -0.00115086 7.14637e-22)
(1.23916 -0.00164443 6.30839e-22)
(1.23341 -0.00208195 0)
(1.22685 -0.00268827 0)
(0.967211 0.279204 0)
(0.952129 0.308158 -4.42038e-20)
(0.942624 0.34378 0)
(0.935531 0.387315 -1.44664e-19)
(0.928774 0.43899 5.59518e-20)
(0.921236 0.500189 2.07584e-21)
(0.909019 0.569687 4.35731e-20)
(0.872324 0.631933 -7.69045e-21)
(0.749284 0.62592 0)
(0.418136 0.374453 3.97794e-20)
(1.01372 0.279378 8.08317e-20)
(1.00365 0.312942 4.42023e-20)
(1.00114 0.347767 -4.0782e-20)
(1.00021 0.39053 4.86692e-20)
(0.999678 0.4418 -3.9224e-20)
(0.999324 0.502206 7.46256e-21)
(0.994453 0.569812 -4.61957e-20)
(0.961912 0.627375 -8.77448e-20)
(0.830891 0.613659 -2.30501e-20)
(0.460595 0.357907 -5.74914e-20)
(1.06156 0.274646 -3.49078e-20)
(1.05738 0.30867 3.56515e-20)
(1.05989 0.342774 4.07804e-20)
(1.06382 0.384943 4.12528e-20)
(1.06908 0.435454 4.13645e-20)
(1.07557 0.494264 4.07696e-20)
(1.07711 0.558597 8.65421e-21)
(1.04673 0.609404 3.53505e-20)
(0.90496 0.5869 1.03948e-20)
(0.494963 0.331674 -1.10964e-20)
(1.1109 0.266199 7.00436e-20)
(1.11143 0.299133 -3.565e-20)
(1.11759 0.331792 0)
(1.12561 0.372405 0)
(1.13615 0.420983 0)
(1.14871 0.476964 2.6961e-20)
(1.15516 0.53656 -2.04074e-20)
(1.12426 0.578686 0)
(0.96841 0.546782 4.49862e-21)
(0.518924 0.297282 -8.05362e-21)
(1.15836 0.253562 -1.19305e-20)
(1.16304 0.284529 4.57752e-20)
(1.17249 0.31536 0)
(1.18437 0.353682 0)
(1.1997 0.399239 1.11978e-20)
(1.21729 0.451128 9.52386e-21)
(1.22668 0.504672 1.49596e-20)