/*--------------------------------*- C++ -*----------------------------------*\
| =========                 |                                                 |
| \\      /  F ield         | OpenFOAM: The Open Source CFD Toolbox           |
|  \\    /   O peration     | Version:  4.1                                   |
|   \\  /    A nd           | Web:      www.OpenFOAM.org                      |
|    \\/     M anipulation  |                                                 |
\*---------------------------------------------------------------------------*/
FoamFile
{
    version     2.0;
    format      ascii;
    class       volScalarField;
    location    "4";
    object      p;
}
// * * * * * * * * * * * * * * * * * * * * * * * * * * * * * * * * * * * * * //

dimensions      [0 2 -2 0 0 0 0];

internalField   nonuniform List<scalar> 
2000
(
-0.121414
-0.110654
-0.102546
-0.0935598
-0.0819764
-0.0672793
-0.0498679
-0.0307772
-0.0106172
0.00734815
-0.139017
-0.126093
-0.115985
-0.104078
-0.0886294
-0.0697628
-0.0485833
-0.0265377
-0.00481036
0.0143146
-0.157487
-0.142226
-0.129532
-0.113704
-0.093368
-0.0696555
-0.0444378
-0.0194313
0.00419112
0.0252507
-0.176205
-0.158429
-0.142366
-0.1215
-0.0953681
-0.0664059
-0.0371539
-0.00937919
0.0159342
0.0380913
-0.194203
-0.17374
-0.153344
-0.126327
-0.0937518
-0.0594484
-0.0263608
0.00393874
0.0307822
0.0541371
-0.210165
-0.186866
-0.161066
-0.126947
-0.0876621
-0.0482487
-0.0117125
0.0207582
0.0489286
0.0733117
-0.222476
-0.196217
-0.163993
-0.122161
-0.0763245
-0.0323091
0.00716812
0.0414408
0.0707495
0.0960709
-0.229329
-0.200006
-0.160616
-0.110924
-0.0590953
-0.0112036
0.0306111
0.066276
0.0965108
0.122591
-0.228895
-0.196457
-0.14955
-0.0924004
-0.035472
0.0154215
0.0589033
0.0954997
0.126375
0.152935
-0.219499
-0.183988
-0.129649
-0.0659825
-0.00510504
0.0478328
0.0922786
0.12929
0.160384
0.186961
-0.0106097
-0.0130596
-0.0114733
-0.00741458
-0.00116685
0.00711856
0.0170613
0.0280923
0.0396229
0.0507073
-0.0138351
-0.0159742
-0.0143754
-0.0104747
-0.0044535
0.00355467
0.0132724
0.0241859
0.0357
0.04697
-0.0199919
-0.0214814
-0.0198503
-0.016214
-0.0106382
-0.00304692
0.00629903
0.0169685
0.0285262
0.0401629
-0.0285023
-0.0290527
-0.0272898
-0.0238971
-0.0187704
-0.0117009
-0.00280747
0.00760029
0.0192127
0.0314454
-0.0387426
-0.0381126
-0.0360561
-0.0328026
-0.028011
-0.0213754
-0.0128325
-0.00258396
0.00910743
0.0221537
-0.0501937
-0.0481873
-0.0456412
-0.0422978
-0.0376347
-0.0311827
-0.02272
-0.0123644
-0.000479574
0.01352
-0.0625352
-0.0590157
-0.0557693
-0.0520691
-0.0472012
-0.0405346
-0.0317266
-0.0208583
-0.00851601
0.0064732
-0.075699
-0.0705471
-0.0664039
-0.0620429
-0.0565272
-0.0490928
-0.0393587
-0.0274957
-0.0142923
0.00158934
-0.0897919
-0.0828964
-0.0776684
-0.0722819
-0.0655362
-0.0565875
-0.0451435
-0.0316519
-0.0169971
-0.000705383
-0.10499
-0.0962316
-0.089707
-0.0828297
-0.0741101
-0.0627435
-0.0486678
-0.0326419
-0.0154829
0.000653006
0.0605771
0.0701331
0.0788807
0.0863573
0.0923397
0.0967126
0.0994047
0.100386
0.0996715
0.0973195
0.0934237
0.0880986
0.0814694
0.0736651
0.0648078
0.0550213
0.0443716
0.033065
0.0207141
0.00875568
0.056313
0.0661187
0.0753237
0.0831629
0.0894462
0.0941025
0.0970646
0.0982969
0.0978121
0.0956694
0.0919641
0.0868129
0.0803431
0.0726859
0.0639657
0.05431
0.0437851
0.0326083
0.0203869
0.00857742
0.0485015
0.0587067
0.0687476
0.0772545
0.0840871
0.0892623
0.0927222
0.0944184
0.0943592
0.0926036
0.089251
0.0844222
0.0782483
0.0708648
0.0624004
0.0529881
0.0426997
0.0317552
0.0198013
0.00817022
0.0384819
0.0490482
0.0601475
0.0695206
0.07705
0.0828841
0.0869839
0.0892802
0.0897731
0.0885219
0.0856305
0.0812254
0.0754427
0.0684231
0.0603006
0.0512148
0.0412457
0.0306118
0.019023
0.00762816
0.0278526
0.0385925
0.0507405
0.0610203
0.0692691
0.0757901
0.080572
0.0835161
0.084609
0.0839105
0.0815285
0.0775953
0.0722518
0.0656437
0.0579104
0.0491972
0.0395956
0.0293155
0.0181515
0.00702667
0.0181522
0.028882
0.0418116
0.0528312
0.0616838
0.0688071
0.0742117
0.0777623
0.0794251
0.0792588
0.0773729
0.073905
0.0690007
0.0628089
0.0554733
0.0471421
0.0379208
0.0280022
0.017281
0.00643239
0.0105941
0.0212872
0.0345582
0.0459593
0.0551722
0.0627036
0.0685647
0.0725881
0.0747206
0.0750116
0.0735585
0.0705005
0.065989
0.0601756
0.0532072
0.0452308
0.0363675
0.0267845
0.0164849
0.00589544
0.00585547
0.0166263
0.029761
0.0410768
0.0503106
0.0579528
0.0639998
0.0682833
0.0707408
0.0714052
0.0703286
0.0676299
0.0634592
0.0579699
0.0513139
0.0436362
0.0350754
0.0257684
0.0158245
0.00544647
0.00364298
0.0143888
0.0269445
0.0378251
0.0468734
0.0544119
0.0604371
0.0648257
0.0674954
0.0684432
0.0677048
0.0653563
0.0615189
0.0563354
0.0499594
0.0425329
0.0342143
0.025109
0.0154165
0.00514377
0.00513782
0.0154328
0.0272154
0.0377808
0.0465285
0.0536595
0.0593184
0.0634452
0.0659359
0.0667785
0.0660498
0.0638061
0.0601314
0.0551384
0.0489657
0.0417382
0.0336246
0.0246955
0.0152151
0.00500508
0.0216333
0.0252696
0.035229
0.044912
0.0523653
0.0580223
0.0623602
0.0654012
0.0670292
0.0671939
0.0659227
0.0632726
0.0593263
0.054179
0.0479572
0.0407602
0.0327629
0.0239866
0.014763
0.00476905
0.0386918
0.0386176
0.0462857
0.0542635
0.0598515
0.0635782
0.066192
0.0678051
0.0682622
0.0674718
0.0654505
0.0622548
0.0579545
0.0526202
0.0463551
0.0392306
0.0314115
0.0228784
0.0140072
0.00437827
0.0548607
0.0524178
0.0574871
0.0632779
0.0669807
0.0689931
0.0700856
0.0704082
0.0697995
0.0681469
0.0654504
0.0617534
0.0571115
0.0515763
0.0452349
0.0381362
0.0304394
0.0220921
0.0135032
0.00415399
0.070466
0.0660284
0.0685632
0.0721216
0.074028
0.0745008
0.0742183
0.0733414
0.071726
0.0692526
0.0659047
0.0617112
0.0567154
0.0509535
0.044499
0.0373812
0.0297527
0.0215315
0.0131435
0.00399132
0.0850371
0.0789849
0.0792328
0.0806846
0.0809038
0.0799684
0.0784355
0.076454
0.0738986
0.0706511
0.0666821
0.0620061
0.0566547
0.0506511
0.0440567
0.0368838
0.0292781
0.0211319
0.0128809
0.00387189
0.0983195
0.0910583
0.089312
0.0888448
0.0875143
0.0853008
0.0826403
0.0796548
0.0762342
0.0722658
0.0677113
0.0625725
0.0568702
0.0506162
0.0438618
0.0366051
0.0289841
0.0208707
0.0127047
0.00379253
0.110318
0.102144
0.0986919
0.0965218
0.0937986
0.0904374
0.0867656
0.082874
0.0786635
0.0740291
0.0689267
0.0633477
0.0573033
0.0507956
0.0438675
0.0365047
0.0288384
0.0207232
0.0125994
0.00374433
0.121075
0.112201
0.107315
0.103665
0.0997108
0.0953283
0.0907543
0.0860492
0.0811227
0.0758774
0.0702664
0.0642724
0.0578988
0.0511393
0.0440296
0.036545
0.0288103
0.0206661
0.0125503
0.00372006
0.130652
0.121243
0.115166
0.110247
0.105217
0.0999326
0.0945582
0.0891271
0.0835559
0.077755
0.0716757
0.0652944
0.0586079
0.0516029
0.044309
0.0366927
0.028873
0.0206791
0.0125448
0.00371411
0.139135
0.129315
0.12225
0.116252
0.11029
0.104217
0.0981375
0.0920628
0.0859154
0.079613
0.0731066
0.0663675
0.0593872
0.0521468
0.0446707
0.0369182
0.0290026
0.0207445
0.0125723
0.00372181
0.146609
0.136468
0.128586
0.121676
0.114914
0.108156
0.10146
0.0948187
0.0881607
0.0814097
0.0745173
0.0674514
0.0601989
0.0527366
0.0450843
0.0371954
0.0291784
0.0208469
0.0126233
0.00373919
0.153147
0.142754
0.134197
0.12652
0.119078
0.111731
0.1045
0.0973643
0.0902576
0.0831096
0.0758724
0.0685114
0.0610103
0.0533422
0.0455231
0.0375018
0.0293824
0.0209728
0.0126897
0.00376294
0.158812
0.148221
0.139108
0.130792
0.122776
0.114927
0.107237
0.0996748
0.0921784
0.0846829
0.0771417
0.0695181
0.0617935
0.0539379
0.0459645
0.0378181
0.0295989
0.0211109
0.0127646
0.00379027
0.16366
0.152913
0.143345
0.134501
0.126006
0.117734
0.109655
0.10173
0.0939003
0.0861053
0.0783002
0.0704468
0.0625249
0.054502
0.0463891
0.0381277
0.0298148
0.0212512
0.012842
0.00381884
0.167738
0.156868
0.146932
0.137657
0.128769
0.120147
0.111745
0.103516
0.0954051
0.0873569
0.0793272
0.0712772
0.0631849
0.0550165
0.0467807
0.0384169
0.030019
0.0213857
0.0129169
0.00384671
0.171085
0.160119
0.149891
0.14027
0.131066
0.122162
0.113496
0.105019
0.0966784
0.0884218
0.0802062
0.0719925
0.0637576
0.0554664
0.0471261
0.0386742
0.0302023
0.0215076
0.0129852
0.00387229
0.173733
0.162694
0.152239
0.142351
0.132901
0.123776
0.114904
0.106231
0.0977092
0.0892874
0.0809241
0.0725796
0.0642303
0.0558399
0.0474146
0.0388905
0.0303573
0.0216114
0.0130437
0.00389429
0.175706
0.16461
0.153989
0.143905
0.134274
0.124987
0.115963
0.107146
0.098489
0.0899445
0.0814708
0.0730284
0.064593
0.0561277
0.0476379
0.0390588
0.0304785
0.021693
0.0130898
0.00391189
0.177031
0.165891
0.155155
0.144938
0.135188
0.125794
0.11667
0.107758
0.0990122
0.0903861
0.0818392
0.0733316
0.0648387
0.0563233
0.04779
0.0391739
0.0305613
0.0217495
0.013121
0.00392665
0.177734
0.166556
0.155751
0.145462
0.135648
0.1262
0.117026
0.108066
0.0992749
0.0906081
0.0820245
0.0734844
0.0649625
0.0564223
0.0478666
0.039233
0.0306018
0.0217813
0.0131311
0.00394719
0.208912
0.175681
0.145816
0.11949
0.0967263
0.0774344
0.0613782
0.0483935
0.0382738
0.0274761
0.22752
0.195712
0.167087
0.141644
0.119466
0.100331
0.0844177
0.07059
0.0599863
0.0470619
0.24384
0.213556
0.186199
0.161614
0.139965
0.120769
0.104571
0.0895791
0.078025
0.0647903
0.25809
0.229089
0.202732
0.178788
0.157516
0.138243
0.121808
0.106344
0.0943579
0.0814934
0.270513
0.242575
0.217041
0.193652
0.172739
0.153592
0.137167
0.121776
0.109458
0.0967854
0.281369
0.254357
0.229554
0.206706
0.186173
0.167293
0.150933
0.135662
0.122936
0.110336
0.290885
0.264696
0.240548
0.218219
0.198039
0.17944
0.163101
0.147913
0.134886
0.122364
0.299236
0.273778
0.250213
0.228358
0.208491
0.190153
0.173844
0.158754
0.145563
0.133085
0.306559
0.281751
0.258703
0.23728
0.217697
0.199606
0.18336
0.168372
0.15508
0.142602
0.312971
0.288739
0.266154
0.24512
0.225801
0.207941
0.191775
0.17687
0.163509
0.151015
0.318564
0.294845
0.272675
0.251992
0.232918
0.215264
0.199183
0.184345
0.170938
0.158424
0.323418
0.300155
0.278356
0.257987
0.239137
0.221666
0.205669
0.190889
0.177448
0.164909
0.327605
0.304742
0.283272
0.263182
0.244536
0.227226
0.211308
0.196576
0.183105
0.170534
0.331165
0.308665
0.287483
0.267639
0.249176
0.232008
0.216162
0.201467
0.187965
0.175355
0.334153
0.311962
0.291039
0.271412
0.253112
0.236066
0.220282
0.205613
0.192078
0.179418
0.336584
0.314669
0.293977
0.274542
0.256384
0.239442
0.223709
0.209055
0.195482
0.182763
0.338495
0.316818
0.296329
0.27706
0.259026
0.24217
0.226476
0.211826
0.198209
0.185423
0.339909
0.318438
0.298124
0.278996
0.261064
0.244276
0.228609
0.213951
0.200284
0.187419
0.340845
0.31955
0.299388
0.280381
0.262537
0.245802
0.23015
0.215475
0.201747
0.188789
0.341266
0.320114
0.300075
0.281169
0.263397
0.246707
0.231067
0.216376
0.202598
0.189555
0.664702
0.662525
0.653771
0.640105
0.622076
0.598559
0.567055
0.525038
0.474632
0.446057
0.619402
0.612329
0.597163
0.578329
0.555538
0.526466
0.488232
0.438554
0.379924
0.345982
0.571443
0.559401
0.539449
0.516285
0.488802
0.454126
0.409372
0.352685
0.286658
0.2484
0.518948
0.503448
0.480519
0.454034
0.422371
0.382531
0.331845
0.26918
0.196961
0.155906
0.465381
0.447054
0.421791
0.392473
0.357142
0.312786
0.256932
0.189323
0.113225
0.0708425
0.412814
0.391923
0.364634
0.332825
0.294316
0.246171
0.186111
0.113976
0.038574
-0.00524506
0.362039
0.338912
0.309968
0.276129
0.235017
0.183891
0.120731
0.0467917
-0.0270848
-0.0711374
0.313691
0.288687
0.258514
0.223212
0.180166
0.127003
0.0623448
-0.011617
-0.08283
-0.125819
0.268221
0.241779
0.211022
0.174629
0.13036
0.0762834
0.0115185
-0.0607601
-0.127704
-0.168703
0.22501
0.198782
0.167823
0.130882
0.0861647
0.032166
-0.0313458
-0.100154
-0.161337
-0.199761
0.974027
0.982234
0.992433
1.00469
1.01896
1.03506
1.05236
1.06922
1.08433
1.1046
0.968724
0.976187
0.985829
0.997484
1.011
1.02616
1.04232
1.0578
1.07126
1.09037
0.958072
0.964084
0.972636
0.983107
0.995133
1.00844
1.02232
1.03502
1.04538
1.06199
0.942009
0.945946
0.95292
0.961658
0.971494
0.982082
0.99263
1.00127
1.0071
1.02003
0.920465
0.921813
0.926796
0.9333
0.940308
0.947392
0.953633
0.957029
0.957034
0.965283
0.893356
0.891702
0.894379
0.898236
0.901871
0.90477
0.90586
0.902999
0.896033
0.898784
0.860765
0.85584
0.856026
0.856899
0.856682
0.854805
0.850032
0.840074
0.825203
0.821864
0.822256
0.814029
0.811855
0.809641
0.805269
0.798202
0.787049
0.769376
0.745909
0.736142
0.77848
0.767156
0.762866
0.757271
0.748373
0.735817
0.717965
0.69222
0.659751
0.643499
0.725814
0.715495
0.710101
0.700825
0.68715
0.668941
0.644191
0.610213
0.568625
0.546054
0.997465
0.992492
0.987831
0.983371
0.979033
0.974846
0.970872
0.967169
0.963785
0.960773
0.958191
0.956134
0.954672
0.953869
0.953798
0.95454
0.956187
0.958841
0.962619
0.967603
0.997411
0.99235
0.987585
0.983005
0.978542
0.974228
0.970124
0.966282
0.962748
0.95957
0.956818
0.954571
0.952894
0.951848
0.951504
0.951939
0.953231
0.955468
0.958756
0.963129
0.997322
0.992067
0.987074
0.982254
0.977549
0.972986
0.96862
0.964497
0.960659
0.957153
0.954063
0.951441
0.949335
0.947804
0.94691
0.946721
0.947302
0.9487
0.950996
0.954124
0.997183
0.991627
0.986294
0.981121
0.976056
0.971124
0.966372
0.961842
0.957564
0.953554
0.949945
0.946755
0.944007
0.941745
0.940017
0.938869
0.938351
0.938469
0.939258
0.940472
0.996992
0.991029
0.985243
0.979599
0.974055
0.968625
0.963341
0.958234
0.953338
0.948755
0.944488
0.940536
0.936927
0.933689
0.930845
0.928403
0.926373
0.924703
0.923424
0.922017
0.996747
0.990268
0.983918
0.97769
0.971551
0.965511
0.959596
0.953832
0.948149
0.942804
0.9377
0.9328
0.928119
0.923664
0.919428
0.915366
0.911443
0.907496
0.903559
0.898707
0.996444
0.98934
0.982322
0.975408
0.968569
0.9618
0.955095
0.948359
0.942003
0.935787
0.929646
0.923593
0.917628
0.911716
0.905806
0.899787
0.893582
0.886867
0.87973
0.870595
0.996081
0.988233
0.980418
0.972681
0.965
0.95731
0.949634
0.942273
0.934963
0.92763
0.920281
0.912906
0.905458
0.89785
0.889981
0.881646
0.872716
0.862617
0.851576
0.837124
0.995702
0.987086
0.978455
0.969758
0.961072
0.952515
0.944108
0.935681
0.927186
0.918608
0.90992
0.901062
0.891949
0.88244
0.872388
0.861481
0.849575
0.835723
0.820449
0.799608
0.995132
0.985382
0.975634
0.966012
0.956451
0.94688
0.937273
0.927597
0.917808
0.907847
0.89764
0.887083
0.876037
0.864281
0.85159
0.837462
0.821702
0.802786
0.781953
0.752535
0.994812
0.984427
0.974024
0.9636
0.95312
0.942555
0.931881
0.921051
0.909999
0.898637
0.886864
0.874536
0.861478
0.84742
0.832072
0.814869
0.795408
0.772089
0.74443
0.706303
0.994519
0.983545
0.97252
0.961427
0.950252
0.938965
0.927522
0.915861
0.903907
0.891567
0.878724
0.865229
0.850896
0.835457
0.818627
0.799881
0.778847
0.754417
0.726478
0.693454
0.994237
0.98269
0.971058
0.95933
0.9475
0.935528
0.923358
0.910924
0.898146
0.884929
0.871154
0.856674
0.84131
0.824816
0.806941
0.787266
0.765506
0.741015
0.713638
0.682586
0.993958
0.981844
0.969611
0.957255
0.944775
0.932127
0.919249
0.906068
0.892506
0.878465
0.863831
0.848461
0.832191
0.814806
0.79609
0.775723
0.753478
0.728927
0.701872
0.671729
0.993684
0.981014
0.968192
0.955225
0.942116
0.92882
0.91527
0.901392
0.887107
0.872319
0.856919
0.840776
0.823741
0.805631
0.786264
0.765392
0.742832
0.718272
0.691586
0.662322
0.993417
0.980209
0.966821
0.953267
0.939559
0.925653
0.911478
0.896958
0.882015
0.86656
0.850491
0.833689
0.816023
0.797339
0.777484
0.756265
0.733544
0.709089
0.682844
0.654423
0.993161
0.979438
0.965512
0.951402
0.93713
0.922654
0.9079
0.892794
0.877259
0.861214
0.844565
0.827205
0.809021
0.789884
0.76967
0.748227
0.725455
0.70118
0.67538
0.647719
0.992918
0.978707
0.964274
0.949643
0.934847
0.919843
0.904559
0.888921
0.872858
0.856294
0.839144
0.821315
0.802709
0.783218
0.762744
0.741167
0.718414
0.694355
0.668985
0.642017
0.99269
0.978022
0.963117
0.948004
0.932722
0.917235
0.90147
0.885355
0.868824
0.851807
0.834228
0.816006
0.797058
0.777294
0.756635
0.734989
0.712303
0.688479
0.66352
0.637193
0.992478
0.977387
0.962048
0.946491
0.930767
0.914842
0.898645
0.882105
0.865162
0.847751
0.829808
0.81126
0.792036
0.772064
0.751279
0.729611
0.707021
0.683439
0.658873
0.633135
0.992283
0.976805
0.96107
0.945112
0.928989
0.912671
0.896088
0.879173
0.86187
0.844122
0.82587
0.807052
0.787609
0.76748
0.746613
0.724957
0.702481
0.67914
0.65494
0.629738
0.992107
0.976278
0.960188
0.943871
0.927392
0.910724
0.893801
0.876559
0.858946
0.84091
0.822399
0.80336
0.783742
0.763496
0.742581
0.720958
0.698606
0.675495
0.651633
0.626914
0.991949
0.975809
0.959403
0.942769
0.925976
0.909003
0.891784
0.87426
0.85638
0.838101
0.819374
0.800155
0.780401
0.76007
0.739131
0.717554
0.695326
0.672431
0.648875
0.624585
0.991811
0.975397
0.958717
0.941808
0.924744
0.907507
0.890035
0.872269
0.854165
0.835682
0.816779
0.797415
0.777554
0.757163
0.736216
0.714692
0.692584
0.669884
0.6466
0.622684
0.991693
0.975044
0.95813
0.940988
0.923694
0.906233
0.888547
0.870581
0.852291
0.83364
0.814593
0.795114
0.775172
0.754739
0.733795
0.712326
0.690327
0.6678
0.644752
0.621157
0.991594
0.97475
0.957643
0.940307
0.922823
0.905179
0.887318
0.869187
0.850746
0.831962
0.812801
0.793233
0.773229
0.752768
0.731833
0.710415
0.688513
0.666134
0.643284
0.619958
0.991515
0.974515
0.957254
0.939766
0.922131
0.904341
0.886342
0.868082
0.849523
0.830635
0.811387
0.791751
0.771702
0.751223
0.7303
0.708928
0.687106
0.664848
0.642159
0.619048
0.991456
0.974342
0.956966
0.939363
0.921614
0.903716
0.885614
0.867259
0.848614
0.829649
0.810338
0.790653
0.770574
0.750084
0.729172
0.707836
0.686078
0.663914
0.641347
0.618398
0.991418
0.974232
0.956783
0.9391
0.921273
0.903301
0.885131
0.866713
0.848011
0.828997
0.809644
0.789928
0.76983
0.749333
0.72843
0.70712
0.685406
0.663307
0.640827
0.617991
0.991386
0.974174
0.956698
0.938974
0.921104
0.903095
0.884891
0.866442
0.847711
0.828672
0.809299
0.789568
0.76946
0.748961
0.728063
0.706766
0.685074
0.66301
0.640579
0.61782
0.662192
0.616098
0.570489
0.521798
0.471752
0.422622
0.375033
0.329259
0.285675
0.245514
0.656819
0.609153
0.563405
0.518162
0.471887
0.426262
0.382136
0.3397
0.299504
0.262277
0.647948
0.602271
0.557918
0.515928
0.473262
0.430699
0.389421
0.349772
0.312121
0.27685
0.639083
0.596367
0.55391
0.514364
0.474681
0.434799
0.395936
0.358587
0.323008
0.289525
0.63124
0.59125
0.550896
0.513368
0.476139
0.438601
0.401813
0.366395
0.332585
0.300617
0.624462
0.586833
0.548605
0.512843
0.477614
0.442089
0.407099
0.373321
0.341009
0.310337
0.618662
0.583082
0.546856
0.512663
0.479076
0.445256
0.411826
0.379453
0.348418
0.318866
0.613759
0.579955
0.545525
0.51272
0.480496
0.448112
0.416031
0.38487
0.354933
0.326355
0.609656
0.57738
0.544516
0.512925
0.481846
0.45067
0.419751
0.389641
0.360653
0.332924
0.606245
0.57528
0.543757
0.513214
0.483099
0.452941
0.42302
0.393823
0.365658
0.338673
0.603426
0.573577
0.543187
0.513536
0.484237
0.454935
0.425869
0.397464
0.370017
0.343683
0.601112
0.572202
0.542757
0.513855
0.485241
0.456661
0.428325
0.400606
0.373786
0.348021
0.599224
0.571093
0.542424
0.514142
0.486099
0.458126
0.43041
0.403281
0.377007
0.351769
0.597696
0.570196
0.542155
0.514375
0.486803
0.459336
0.432144
0.405518
0.379697
0.354828
0.596472
0.569468
0.541919
0.514537
0.487346
0.460296
0.433544
0.40735
0.381941
0.35749
0.595507
0.568871
0.541691
0.514613
0.48772
0.461007
0.434621
0.408794
0.38374
0.359622
0.594764
0.568377
0.541455
0.514593
0.487923
0.461475
0.435385
0.409863
0.385107
0.361273
0.594212
0.56796
0.541194
0.514469
0.487954
0.461705
0.435848
0.410572
0.386063
0.362466
0.593831
0.567592
0.540869
0.514197
0.487773
0.461664
0.435986
0.41091
0.38661
0.363223
0.593661
0.567348
0.540543
0.513809
0.487381
0.461333
0.435765
0.41083
0.386686
0.363462
)
;

boundaryField
{
    bottom
    {
        type            symmetryPlane;
    }
    right
    {
        type            fixedValue;
        value           uniform 0;
    }
    top
    {
        type            symmetryPlane;
    }
    left
    {
        type            fixedValue;
        value           uniform 1;
    }
    cylinder
    {
        type            zeroGradient;
    }
    defaultFaces
    {
        type            empty;
    }
}


// ************************************************************************* //
