/*--------------------------------*- C++ -*----------------------------------*\
| =========                 |                                                 |
| \\      /  F ield         | OpenFOAM: The Open Source CFD Toolbox           |
|  \\    /   O peration     | Version:  4.1                                   |
|   \\  /    A nd           | Web:      www.OpenFOAM.org                      |
|    \\/     M anipulation  |                                                 |
\*---------------------------------------------------------------------------*/
FoamFile
{
    version     2.0;
    format      ascii;
    class       surfaceScalarField;
    location    "4";
    object      phi;
}
// * * * * * * * * * * * * * * * * * * * * * * * * * * * * * * * * * * * * * //

dimensions      [0 3 -1 0 0 0 0];

internalField   nonuniform List<scalar> 
3890
(
0.000781806
-0.000481283
-0.000300524
0.00329044
-0.00597267
0.00346404
0.00748148
-0.0138961
0.00970502
0.0129878
-0.0226012
0.0170949
0.0192161
-0.0307683
0.0245401
0.025555
-0.0375678
0.0312289
0.0315347
-0.0426829
0.0367032
0.0368752
-0.0461717
0.0408312
0.0414369
-0.0482523
0.0436905
-0.0493335
0.0455158
0.0452546
0.000991408
-0.00147269
0.00401884
-0.0090001
0.00884222
-0.0187194
0.014822
-0.0285811
0.021169
-0.0371153
0.0272315
-0.0436303
0.032625
-0.0480763
0.0372173
-0.050764
0.0410823
-0.0521173
-0.0526437
0.0443925
0.00122955
-0.00270224
0.00477337
-0.0125439
0.0100996
-0.0240457
0.016273
-0.0347544
0.0223869
-0.0432292
0.0278545
-0.0490979
0.0324416
-0.0526635
0.0361662
-0.0544887
0.0391834
-0.0551344
-0.0551001
0.0416398
0.00148643
-0.00418867
0.00549661
-0.0165541
0.0111216
-0.0296707
0.0171735
-0.0408063
0.0227484
-0.0488042
0.0274163
-0.0537657
0.0311242
-0.0563713
0.0340245
-0.057389
0.0363402
-0.0574501
-0.0570249
0.0382651
0.00174633
-0.00593501
0.00611788
-0.0209256
0.011788
-0.0353408
0.017426
-0.0464443
0.0222489
-0.0536271
0.0260309
-0.0575478
0.0288827
-0.0592231
0.0310437
-0.0595501
0.0327593
-0.0591656
-0.0584697
0.034204
0.00198889
-0.0079239
0.00656703
-0.0255038
0.012021
-0.0407948
0.0170183
-0.0514415
0.0209799
-0.0575887
0.0238837
-0.0604516
0.0259622
-0.0613015
0.027496
-0.0610839
0.0287173
-0.0603869
-0.059522
0.0297696
0.00219084
-0.0101147
0.00678822
-0.0301012
0.0117958
-0.0458024
0.0160088
-0.0556546
0.0190848
-0.0606646
0.0211712
-0.0625381
0.0225715
-0.0627017
0.0235669
-0.0620794
0.0243563
-0.0611764
-0.0602165
0.0250509
0.00232883
-0.0124436
0.00674844
-0.0345208
0.0111363
-0.0501903
0.0144987
-0.059017
0.016721
-0.0628868
0.0180725
-0.0638896
0.0188829
-0.0635121
0.0194083
-0.0626047
0.019807
-0.0615751
-0.0605683
0.0201587
0.00238393
-0.0148275
0.00644711
-0.038584
0.0101018
-0.0538449
0.0126048
-0.06152
0.0140341
-0.0643161
0.0147327
-0.0645883
0.0150231
-0.0638025
0.0151223
-0.0627039
0.0151483
-0.0616012
-0.0605756
0.0151556
0.00234541
-0.0171729
0.00590985
-0.0421484
0.00876998
-0.0567051
0.0104411
-0.0631911
0.0111474
-0.0650224
0.0112636
-0.0647045
0.0110843
-0.0636232
0.0107852
-0.0624048
0.0104511
-0.0612671
0.0101138
-0.0602382
-0.000587625
0.000587625
-0.00149789
0.000910269
-0.0023226
0.000824706
-0.00283854
0.000515935
-0.00290782
6.92871e-05
-0.00245249
-0.000455336
-0.00142166
-0.00103082
0.000201344
-0.00162301
0.00238621
-0.00218487
-0.00264923
0.00503544
-0.000525829
0.00111345
-0.00131743
0.00170187
-0.00199026
0.00149754
-0.00232555
0.000851225
-0.00219301
-6.32601e-05
-0.00151143
-0.00113692
-0.000236879
-0.00230537
0.00163694
-0.00349682
0.00409068
-0.00463862
-0.00559031
0.00703176
-0.000411836
0.00152529
-0.000985104
0.00227514
-0.0013701
0.00188254
-0.00136023
0.000841348
-0.000836074
-0.000587411
0.000279371
-0.00225236
0.00201596
-0.00404196
0.00437764
-0.0058585
0.0073341
-0.00759507
-0.00906687
0.0108107
-0.000266039
0.00179133
-0.000546152
0.00255525
-0.000536056
0.00187244
-4.66007e-05
0.000351892
0.00103557
-0.00166958
0.00276753
-0.00398432
0.00516155
-0.00643598
0.00819482
-0.00889178
0.0118213
-0.0112216
-0.0132287
0.0159831
-0.000109043
0.00190037
-5.07654e-05
0.00249698
0.000433612
0.00138806
0.00151055
-0.000725042
0.00327823
-0.00343727
0.00576984
-0.00647593
0.00896333
-0.00962947
0.0127938
-0.0127222
0.0171745
-0.0156023
-0.018106
0.0220518
4.36722e-05
0.0018567
0.000460222
0.00208043
0.00146979
0.00037849
0.00321538
-0.00247063
0.00576668
-0.00598856
0.00911586
-0.00982512
0.0131863
-0.0136999
0.0178515
-0.0173875
0.0229654
-0.0207161
-0.0235914
0.0284508
0.000184096
0.0016726
0.00096927
0.00129525
0.00254361
-0.00119585
0.00502059
-0.00494761
0.0084208
-0.00938877
0.0126677
-0.014072
0.0176035
-0.0186357
0.0230237
-0.0228077
0.0287199
-0.0264123
-0.0294351
0.0345636
0.000316619
0.00135598
0.001483
0.000128873
0.00366173
-0.00337458
0.0069176
-0.00820349
0.011189
-0.0136602
0.0162925
-0.0191755
0.0219656
-0.0243088
0.0279247
-0.0287668
0.0339173
-0.0324049
-0.0352705
0.0397527
0.000451966
0.000904018
0.00202534
-0.0014445
0.00485018
-0.00619942
0.00890783
-0.0122611
0.0140045
-0.0187569
0.0198125
-0.0249834
0.0259585
-0.0304549
0.0321107
-0.0349189
0.0380194
-0.0383136
-0.0407092
0.0434581
0.000603495
0.00262304
0.00612863
0.0109624
0.0167456
0.022991
0.0292394
0.0351516
0.0405285
0.0453352
0.00748848
-0.00245304
0.0100355
-0.00254705
0.0126645
-0.002629
0.0153466
-0.00268203
0.0180481
-0.00270156
0.0207387
-0.0026906
0.0233917
-0.00265302
0.0259834
-0.0025917
0.0284925
-0.00250905
0.0309011
-0.0024086
0.0331953
-0.00229423
0.0353649
-0.0021696
0.037403
-0.0020381
0.0393058
-0.0019028
0.0410723
-0.00176647
0.0427037
-0.00163141
0.0442041
-0.00150041
0.0455767
-0.00137253
0.0468379
-0.00126121
-0.00112273
0.00943319
-0.00485447
0.0119145
-0.00502835
0.0144694
-0.00518396
0.0170703
-0.00528291
0.0196844
-0.00531562
0.0222827
-0.00528889
0.0248404
-0.00521076
0.0273358
-0.00508706
0.029749
-0.00492228
0.0320635
-0.00472313
0.0342665
-0.00449719
0.0363485
-0.00425166
0.0383036
-0.00399317
0.0401285
-0.00372765
0.0418225
-0.0034605
0.0433871
-0.00319599
0.0448267
-0.00294003
0.0461432
-0.00268902
0.0473556
-0.00247362
-0.00219714
0.0131075
-0.00715129
0.0154575
-0.00737835
0.0178663
-0.00759277
0.0203092
-0.00772577
0.0227546
-0.00776105
0.0251763
-0.00771057
0.0275528
-0.00758729
0.0298657
-0.00739993
0.032098
-0.00715461
0.0342354
-0.00686049
0.0362668
-0.00652864
0.0381847
-0.00616959
0.0399845
-0.0057929
0.0416638
-0.00540703
0.043223
-0.0050197
0.0446637
-0.00463664
0.0459907
-0.00426699
0.0472048
-0.00390313
0.0483255
-0.00359436
-0.00319094
0.0181149
-0.00928301
0.0202695
-0.00953301
0.0224654
-0.00978862
0.0246817
-0.00994205
0.026889
-0.00996841
0.0290645
-0.00988607
0.0311908
-0.00971356
0.0332532
-0.00946236
0.0352387
-0.00914004
0.0371354
-0.00875718
0.0389349
-0.0083282
0.0406319
-0.00786662
0.0422236
-0.00738459
0.0437092
-0.00689262
0.0450899
-0.00640037
0.0463675
-0.00591422
0.0475473
-0.00544678
0.0486286
-0.00498444
0.0496316
-0.00459742
-0.0040808
0.0239436
-0.0111748
0.0258377
-0.0114272
0.0277596
-0.0117105
0.0296911
-0.0118735
0.031606
-0.0118833
0.0334849
-0.011765
0.0353139
-0.0115426
0.0370819
-0.0112303
0.0387793
-0.0108374
0.0403975
-0.0103754
0.0419309
-0.00986157
0.0433765
-0.00931221
0.0447335
-0.00874161
0.0460026
-0.00816171
0.0471858
-0.00758362
0.048285
-0.00701342
0.0493058
-0.00646751
0.0502454
-0.00592404
0.0511242
-0.00547628
-0.00486333
0.0300203
-0.0127443
0.0315933
-0.0130002
0.0331911
-0.0133084
0.0347952
-0.0134776
0.0363828
-0.0134709
0.0379377
-0.0133199
0.0394477
-0.0130527
0.0409037
-0.0126863
0.0422995
-0.0122332
0.0436297
-0.0117056
0.0448915
-0.0111233
0.0460842
-0.010505
0.047209
-0.00986634
0.0482673
-0.00922005
0.0492619
-0.00857815
0.0501937
-0.00794528
0.0510683
-0.00734205
0.0518804
-0.00673622
0.05265
-0.00624582
-0.00555482
0.035748
-0.0139287
0.0369635
-0.0142157
0.0382124
-0.0145572
0.0394719
-0.0147371
0.0407237
-0.0147227
0.0419531
-0.0145493
0.0431479
-0.0142475
0.0443006
-0.0138389
0.0454086
-0.0133412
0.0464704
-0.0127674
0.0474853
-0.0121382
0.0484541
-0.0114738
0.0493788
-0.010791
0.0502607
-0.010102
0.0511021
-0.00941957
0.0519027
-0.00874586
0.0526669
-0.0081062
0.0533868
-0.00745619
0.0540808
-0.00693981
-0.00618824
0.0405478
-0.0147238
0.0414215
-0.0150894
0.0423356
-0.0154713
0.0432648
-0.0156663
0.0441995
-0.0156574
0.0451272
-0.015477
0.0460365
-0.0151568
0.0469228
-0.0147253
0.0477876
-0.014206
0.0486333
-0.0136131
0.0494587
-0.0129636
0.050264
-0.0122792
0.0510497
-0.0115767
0.0518157
-0.010868
0.0525625
-0.0101664
0.0532877
-0.00947104
0.0539944
-0.00881291
0.0546723
-0.00813416
0.0553375
-0.007605
-0.00680666
0.0439573
-0.015223
0.0445735
-0.0157057
0.0451975
-0.0160953
0.0458354
-0.0163041
0.0464939
-0.016316
0.0471677
-0.0161508
0.0478528
-0.0158419
0.0485481
-0.0154205
0.0492526
-0.0149105
0.0499666
-0.014327
0.0506878
-0.0136849
0.0514137
-0.013005
0.0521415
-0.0123044
0.0528678
-0.0115944
0.0535909
-0.0108894
0.0543059
-0.0101861
0.0550149
-0.00952189
0.0557065
-0.00882576
0.0563952
-0.00829369
-0.00746074
0.0459704
-0.0158582
0.0464003
-0.0161356
0.046776
-0.0164709
0.0471694
-0.0166975
0.0476054
-0.016752
0.0480916
-0.016637
0.0486308
-0.0163811
0.0492206
-0.0160103
0.0498526
-0.0155425
0.0505206
-0.0149951
0.051221
-0.0143853
0.0519472
-0.0137312
0.0526925
-0.0130497
0.0534501
-0.0123519
0.0542152
-0.0116546
0.0549808
-0.0109517
0.0557469
-0.010288
0.0565023
-0.0095812
0.0572599
-0.00905123
-0.00820628
0.0705013
-0.0141312
-0.0722283
0.0690697
-0.014704
0.0676606
-0.0150618
0.0662566
-0.0152935
0.0648904
-0.0153858
0.0635848
-0.0153314
0.0623495
-0.0151458
0.0611898
-0.0148506
0.0601117
-0.0144644
0.0591206
-0.014004
0.0582202
-0.0134849
0.0574109
-0.0129219
0.0566911
-0.0123299
0.0560569
-0.0117178
0.055504
-0.0111016
0.0550261
-0.0104738
0.0546175
-0.00987936
0.0542718
-0.00923549
0.0539799
-0.00875931
-0.00798011
0.0720152
-0.0125659
-0.0735805
0.0705046
-0.0131934
0.0690545
-0.0136117
0.067636
-0.0138751
0.0662563
-0.0140061
0.0649327
-0.0140078
0.0636764
-0.0138895
0.0624935
-0.0136677
0.0613886
-0.0133595
0.0603652
-0.0129805
0.0594253
-0.0125451
0.0585693
-0.0120659
0.0577958
-0.0115564
0.0571021
-0.011024
0.0564844
-0.0104839
0.0559385
-0.00992796
0.0554587
-0.0093995
0.055042
-0.00881886
0.0546741
-0.00839139
-0.00767142
0.0726581
-0.0110927
-0.0741313
0.0711967
-0.0117321
0.0697795
-0.0121945
0.0683995
-0.0124951
0.0670567
-0.0126633
0.0657627
-0.0127137
0.0645285
-0.0126554
0.0633614
-0.0125005
0.0622655
-0.0122637
0.0612439
-0.011959
0.0602985
-0.0115996
0.0594295
-0.011197
0.0586358
-0.0107627
0.0579152
-0.0103034
0.0572646
-0.00983322
0.0566805
-0.00934386
0.0561575
-0.00887655
0.0556941
-0.00835549
0.0552755
-0.0079728
-0.00731372
0.072694
-0.00974371
-0.074043
0.071347
-0.0103851
0.0700208
-0.0108683
0.0687212
-0.0111955
0.0674525
-0.0113946
0.0662237
-0.0114849
0.0650447
-0.0114764
0.0639228
-0.0113787
0.0628629
-0.0112037
0.0618681
-0.0109641
0.0609402
-0.0106718
0.06008
-0.0103368
0.0592869
-0.00996961
0.0585594
-0.00957587
0.0578949
-0.00916874
0.0572911
-0.00874004
0.0567431
-0.00832859
0.0562506
-0.00786295
0.0557997
-0.00752196
-0.00692196
0.0723742
-0.00855126
-0.0735667
0.0711647
-0.00917551
0.0699556
-0.00965922
0.0687591
-0.00999902
0.0675838
-0.0102193
0.0664385
-0.0103396
0.0653322
-0.01037
0.0642721
-0.0103186
0.0632635
-0.0101951
0.06231
-0.0100106
0.0614138
-0.00977563
0.0605761
-0.00949913
0.059797
-0.00919047
0.0590756
-0.00885449
0.0584103
-0.00850339
0.0577994
-0.00812916
0.0572389
-0.00776815
0.0567295
-0.00735353
0.0562583
-0.00705076
-0.00650667
0.0718892
-0.00751193
-0.0729285
0.0708147
-0.008101
0.0697255
-0.00857002
0.0686368
-0.00891034
0.0675594
-0.00914186
0.0665022
-0.00928241
0.0654736
-0.00934147
0.064481
-0.0093259
0.0635298
-0.00924393
0.0626241
-0.00910489
0.0617665
-0.00891808
0.0609588
-0.00869136
0.0602014
-0.00843308
0.0594943
-0.00814738
0.0588364
-0.0078455
0.0582269
-0.00751972
0.0576626
-0.00720383
0.0571448
-0.00683575
0.0566618
-0.00656768
-0.00607624
0.0713556
-0.00660358
-0.0722639
0.0704026
-0.00714802
0.0694247
-0.00759209
0.0684377
-0.0079234
0.0674533
-0.00815744
0.0664805
-0.00830962
0.0655274
-0.0083884
0.0646012
-0.00839965
0.0637075
-0.00835024
0.0628507
-0.00824804
0.0620337
-0.00810113
0.0612587
-0.00791633
0.0605267
-0.00770106
0.0598381
-0.00745884
0.0591926
-0.00719996
0.0585899
-0.00691707
0.0580274
-0.00664134
0.0575072
-0.00631551
0.0570183
-0.00607882
-0.00563671
0.0708356
-0.00580341
-0.0716358
0.0699871
-0.00629949
0.0691071
-0.0067121
0.0682111
-0.00702739
0.0673106
-0.00725697
0.0664147
-0.00741368
0.0655311
-0.00750482
0.0646667
-0.0075353
0.0638273
-0.00751084
0.0630173
-0.00743805
0.0622401
-0.00732385
0.0614979
-0.00717412
0.0607922
-0.00699539
0.060124
-0.00679066
0.0594933
-0.00656927
0.0589005
-0.00632427
0.0583435
-0.00608427
0.0578247
-0.00579676
0.0573343
-0.00558842
-0.00519238
0.0703565
-0.00509177
-0.0710681
0.0695955
-0.00553851
0.0687994
-0.00591606
0.0679826
-0.00621051
0.0671559
-0.00643033
0.0663282
-0.00658597
0.0655069
-0.00668348
0.0646985
-0.00672696
0.0639088
-0.00672111
0.0631422
-0.00667143
0.0624022
-0.00658382
0.0616913
-0.00646328
0.0610115
-0.00631554
0.0603639
-0.0061431
0.059749
-0.00595439
0.0591677
-0.00574292
0.0586181
-0.00553472
0.0581034
-0.00528204
0.0576143
-0.00509934
-0.00474633
0.0699262
-0.00445214
-0.0705658
0.069238
-0.00485029
0.0685131
-0.00519119
0.0677643
-0.00546166
0.0670018
-0.00566783
0.0662338
-0.00581801
0.0654675
-0.00591713
0.064709
-0.00596852
0.0639639
-0.00597602
0.0632367
-0.0059442
0.0625309
-0.005878
0.0618493
-0.00578166
0.0611939
-0.00566014
0.0605663
-0.00551552
0.0599672
-0.00535535
0.0593979
-0.00517362
0.058857
-0.00499382
0.0583479
-0.00477287
0.057862
-0.00461344
-0.00430071
0.0695448
-0.00387132
-0.0701256
0.068917
-0.00422249
0.0682522
-0.00452637
0.0675615
-0.00477096
0.0668543
-0.00496065
0.0661383
-0.00510201
0.0654201
-0.00519895
0.0647057
-0.00525413
0.0640003
-0.00527066
0.0633084
-0.00525229
0.0626336
-0.00520314
0.0619787
-0.00512676
0.061346
-0.00502742
0.0607372
-0.0049068
0.0601535
-0.00477161
0.0595962
-0.00461635
0.0590644
-0.00446201
0.0585616
-0.00427011
0.0580801
-0.00413187
-0.00385697
0.0692095
-0.00333871
-0.0697421
0.0686319
-0.00364486
0.0680176
-0.00391205
0.0673763
-0.00412968
0.0667165
-0.00430092
0.0660454
-0.00443089
0.0653691
-0.00452266
0.0646933
-0.0045783
0.064023
-0.00460032
0.0633624
-0.00459176
0.0627153
-0.004556
0.0620845
-0.004496
0.0614725
-0.00441538
0.0608812
-0.00431552
0.0603119
-0.00420226
0.0597662
-0.00407067
0.0592435
-0.00393926
0.0587474
-0.00377408
0.0582708
-0.00365528
-0.00341605
0.0689175
-0.00284564
-0.0694106
0.0683814
-0.00310874
0.0678093
-0.00333995
0.0672098
-0.00353014
0.0665904
-0.00368157
0.0659578
-0.00379823
0.0653176
-0.00388249
0.0646752
-0.00393594
0.0640355
-0.00396055
0.0634025
-0.00395876
0.0627798
-0.00393336
0.0621706
-0.00388674
0.0615771
-0.00382195
0.0610017
-0.00374008
0.0604456
-0.00364617
0.0599108
-0.00353586
0.0593968
-0.00342523
0.0589075
-0.00328479
0.0584361
-0.0031839
-0.00297849
0.0686664
-0.00238478
-0.0691272
0.0681644
-0.00260673
0.0676273
-0.00280286
0.0670626
-0.00296548
0.0664773
-0.00309622
0.0658772
-0.00319815
0.0652678
-0.00327309
0.0646541
-0.00332221
0.0640406
-0.00334708
0.0634314
-0.00334962
0.0628301
-0.00333205
0.0622397
-0.00329632
0.0616627
-0.00324493
0.0611014
-0.00317874
0.0605572
-0.00310201
0.0600323
-0.00301098
0.0595264
-0.00291932
0.0590435
-0.00280193
0.0585773
-0.00271768
-0.00254449
0.068454
-0.0019499
-0.0688889
0.0679797
-0.00213242
0.0674713
-0.0022944
0.0669353
-0.00242953
0.0663781
-0.00253902
0.0658052
-0.00262519
0.0652215
-0.00268942
0.0646319
-0.00273258
0.0640406
-0.00275584
0.0634517
-0.00276071
0.0628686
-0.00274895
0.0622944
-0.00272207
0.0617315
-0.0026821
0.0611825
-0.00262969
0.0606488
-0.00256835
0.0601328
-0.00249493
0.0596342
-0.00242073
0.0591572
-0.00232498
0.0586959
-0.00225632
-0.00211401
0.0682788
-0.00153556
-0.0686932
0.0678266
-0.00168017
0.067341
-0.00180886
0.0668282
-0.00191671
0.0662938
-0.00200459
0.0657429
-0.00207428
0.0651802
-0.00212677
0.0646103
-0.00216269
0.0640374
-0.00218291
0.0634653
-0.00218856
0.0628973
-0.00218098
0.0623365
-0.00216133
0.0617856
-0.00213118
0.061247
-0.00209103
0.0607222
-0.00204362
0.0602138
-0.00198647
0.0597216
-0.00192851
0.0592498
-0.00185328
0.0587929
-0.00179933
-0.00168681
0.0681392
-0.00113703
-0.0685377
0.067704
-0.00124499
0.0672363
-0.00134112
0.0667415
-0.0014219
0.0662249
-0.00148799
0.0656913
-0.00154069
0.0651452
-0.00158069
0.0645909
-0.00160842
0.0640325
-0.00162451
0.0634737
-0.00162975
0.0629179
-0.00162511
0.062368
-0.00161145
0.0618267
-0.00158988
0.0612964
-0.00156079
0.060779
-0.00152619
0.0602768
-0.00148425
0.0597898
-0.00144156
0.0593225
-0.00138598
0.0588692
-0.00134603
-0.00126245
0.0680339
-0.000750247
-0.0684206
0.0676113
-0.000822449
0.0671568
-0.000886567
0.0666753
-0.000940446
0.0661719
-0.000984625
0.0656512
-0.00101998
0.0651175
-0.00104696
0.0645749
-0.00106583
0.0640274
-0.00107699
0.0634786
-0.00108095
0.0629318
-0.00107835
0.0623901
-0.00106974
0.0618561
-0.00105585
0.0613323
-0.00103695
0.0608204
-0.00101431
0.060323
-0.000986835
0.0598401
-0.00095866
0.0593762
-0.000922124
0.0589258
-0.000895592
-0.000840418
0.0679625
-0.000371705
-0.068341
0.0675487
-0.000408657
0.0671031
-0.000440985
0.0666306
-0.00046796
0.0661361
-0.000490076
0.0656239
-0.000507836
0.0650984
-0.00052144
0.0645636
-0.000531
0.0640233
-0.000536703
0.0634812
-0.000538821
0.0629405
-0.000537659
0.0624042
-0.00053351
0.0618751
-0.000526693
0.0613555
-0.000517421
0.0608474
-0.000506162
0.0603533
-0.000492689
0.059873
-0.000478447
0.0594117
-0.000460788
0.0589628
-0.000446713
-0.000420581
0.0679257
-0.0682974
0.0675171
0.0670761
0.0666081
0.0661181
0.0656102
0.0650888
0.0645578
0.0640211
0.0634823
0.0629446
0.0624111
0.0618844
0.061367
0.0608608
0.0603681
0.0598897
0.0594289
0.0589822
0.0604267
0.00902483
-0.0593377
0.0616781
0.0139042
0.0630842
0.0187526
0.0646365
0.0234985
0.0662945
0.0281116
0.0680336
0.032465
0.0696349
0.0366638
0.0711732
0.0401014
0.0716695
0.0438962
0.0446957
0.0595047
0.00803851
-0.0585184
0.060682
0.0127269
0.0620429
0.0173917
0.0635922
0.0219492
0.0652755
0.0264284
0.0671417
0.0305988
0.0689523
0.0348532
0.0709291
0.0381246
0.0724693
0.0423561
0.0435845
0.058703
0.00716558
-0.0578301
0.0597898
0.0116402
0.0610781
0.0161034
0.0625863
0.0204409
0.0642525
0.0247622
0.0661511
0.0287002
0.0681127
0.0328916
0.0702546
0.0359827
0.0724349
0.0401758
0.0418881
0.0580239
0.00639332
-0.0572516
0.0590243
0.0106398
0.0602404
0.0148873
0.0616946
0.0189866
0.0633403
0.0231165
0.0652244
0.0268161
0.0672853
0.0308307
0.0694661
0.0338019
0.0719187
0.0377232
0.0397638
0.0574476
0.00570373
-0.056758
0.0583739
0.00971348
0.0595288
0.0137324
0.0609268
0.0175887
0.062548
0.0214954
0.0643896
0.0249745
0.0664793
0.028741
0.0686591
0.0316221
0.0711832
0.0351991
0.0373803
0.0569524
0.00508251
-0.0563312
0.0578159
0.00884996
0.0589198
0.0126285
0.0602645
0.0162439
0.0618549
0.019905
0.0636497
0.0231796
0.0657242
0.0266665
0.0679031
0.0294432
0.0704189
0.0326833
0.0348707
0.0565225
0.00451933
-0.0559593
0.0573324
0.00804011
0.0583924
0.0115685
0.0596913
0.014945
0.0612486
0.0183477
0.0630073
0.0214209
0.0650506
0.0246233
0.0672276
0.0272661
0.0697087
0.0302022
0.0323155
0.0561479
0.00400633
-0.0556349
0.0569118
0.00727623
0.0579333
0.010547
0.0591949
0.0136834
0.0607202
0.0168224
0.0624528
0.0196883
0.0644613
0.0226148
0.0666299
0.0250975
0.0690735
0.0277586
0.0297532
0.0558214
0.00353711
-0.0553522
0.0565459
0.00655176
0.0575331
0.00955982
0.0587641
0.0124523
0.0602597
0.0153268
0.0619713
0.0179767
0.0639475
0.0206386
0.0661033
0.0229418
0.0685146
0.0253474
0.0271996
0.0555375
0.00310616
-0.0551065
0.0562281
0.00586114
0.0571847
0.00860318
0.05839
0.0112471
0.0598586
0.0138582
0.0615517
0.0162837
0.0635005
0.0186897
0.0656421
0.0208002
0.0680265
0.0229629
0.0246603
0.0552915
0.00270863
-0.054894
0.055953
0.00519966
0.0568827
0.00767344
0.0580657
0.0100641
0.0595106
0.0124133
0.0611869
0.0146074
0.063113
0.0167636
0.0652401
0.0186731
0.0676017
0.0206014
0.0221364
0.0550796
0.00234009
-0.0547111
0.055716
0.00456324
0.0566224
0.00676708
0.057786
0.00890052
0.0592106
0.0109887
0.0608715
0.0129464
0.0627785
0.0148566
0.0648917
0.0165599
0.0672333
0.0182598
0.0196275
0.0548986
0.00199674
-0.0545552
0.0555136
0.00394824
0.0563999
0.00588073
0.0575468
0.00775371
0.0589541
0.00958131
0.0606014
0.0112992
0.0624919
0.0129661
0.0645923
0.0144595
0.0669162
0.0159358
0.0171332
0.0547455
0.00167256
-0.0544214
0.0553425
0.00335131
0.056212
0.00501117
0.0573446
0.00662115
0.0587375
0.00818836
0.0603728
0.00966394
0.0622495
0.0110894
0.0643382
0.0123708
0.0666466
0.0136275
0.0146525
0.0546188
0.0013661
-0.0543124
0.0552005
0.00276968
0.056056
0.00415566
0.0571766
0.00550053
0.0585577
0.00680724
0.0601828
0.00803881
0.062048
0.00922424
0.0641265
0.0102923
0.0664212
0.0113328
0.0121848
0.0545162
0.00107461
-0.0542247
0.0550853
0.00220055
0.0559295
0.00331148
0.0570404
0.00438961
0.0584121
0.00543559
0.060029
0.00642194
0.0618847
0.00736851
0.0639545
0.00822247
0.0662374
0.00904989
0.00972899
0.0544362
0.000794977
-0.0541565
0.0549953
0.00164144
0.0558306
0.00247616
0.056934
0.00328622
0.0582984
0.00407117
0.0599089
0.00481147
0.0617573
0.00552016
0.0638198
0.00615989
0.0660927
0.00677698
0.00728402
0.0543771
0.000524444
-0.0541066
0.0549287
0.00108991
0.0557575
0.00164731
0.0568555
0.00218821
0.0582149
0.00271181
0.0598208
0.00320553
0.0616638
0.00367721
0.0637207
0.00410295
0.0659854
0.00451228
0.00484876
0.0543375
0.000260963
-0.054074
0.0548839
0.000543498
0.0557085
0.000822642
0.0568033
0.00109345
0.0581597
0.00135539
0.059763
0.00160224
0.0616025
0.00183774
0.0636554
0.00205005
0.0659138
0.00225388
0.00242154
0.054317
-0.0540561
0.0548605
0.0556832
0.0567766
0.058132
0.0597342
0.061572
0.063622
0.0658759
0.0287854
0.041994
-0.0388751
-0.0319043
0.0253604
0.0427675
-0.0393425
0.02186
0.0437724
-0.0402719
0.0182956
0.0450149
-0.0414505
0.0146609
0.0464811
-0.0428464
0.010964
0.0481664
-0.0444695
0.00727213
0.0497889
-0.046097
0.00381633
0.0499901
-0.0465343
0.00111693
0.0447221
-0.0420227
0.0249956
-0.0238787
0.0258897
0.045193
-0.0290888
0.0226774
0.0459799
0.0194303
0.0470195
0.0161356
0.0483096
0.0127768
0.0498399
0.00936669
0.0515766
0.00600091
0.0531547
0.00295037
0.0530406
0.000730908
0.0469415
0.0257265
0.022864
0.0481372
-0.0258082
0.0198703
0.0489736
0.0168483
0.0500414
0.0137985
0.0513594
0.0107093
0.0529292
0.00760095
0.0546849
0.00459441
0.0561612
0.00200022
0.0556348
0.000309882
0.0486319
0.0260364
0.0195285
0.050815
-0.0222063
0.0167984
0.0517036
0.0140387
0.0528011
0.0112594
0.0541387
0.00846121
0.0557274
0.0056818
0.0574643
0.0030675
0.0587755
0.000965398
0.0577369
-0.000129453
0.0497267
0.025907
0.0158855
0.0532151
-0.0182856
0.013445
0.0541441
0.0109816
0.0552645
0.00850539
0.056615
0.00602868
0.0582041
0.00361361
0.0598794
0.00144244
0.0609467
-0.000164442
0.0593438
-0.000548449
0.0501107
0.0253585
0.011962
0.0553085
-0.0140554
0.00983829
0.0562679
0.00769658
0.0574062
0.00555038
0.0587612
0.00342573
0.0603288
0.00141207
0.061893
-0.00026991
0.0626286
-0.00116231
0.0602362
-0.000953004
0.0499014
0.0244055
0.00779953
0.0570622
-0.00955326
0.00601532
0.0580521
0.00421456
0.0592069
0.00242302
0.0605527
0.000681388
0.0620704
-0.000885003
0.0634594
-0.00199079
0.0637344
-0.00223501
0.0604804
-0.00133973
0.0490062
0.0230658
0.00343936
0.058466
-0.0048431
0.0020021
0.0594893
0.000567375
0.0606417
-0.0008554
0.0619755
-0.00219082
0.0634058
-0.00326579
0.0645344
-0.00377041
0.0642391
-0.00329119
0.0600012
-0.00169225
0.0474072
0.0213735
-0.00108043
0.0595943
-4.7948e-05
-0.00216199
0.0605709
-0.00323559
0.0617153
-0.00426573
0.0630056
-0.00515457
0.0642946
-0.00569429
0.0650741
-0.00553356
0.0640783
-0.00428544
0.0587531
-0.00198915
0.0451109
0.0193844
-0.00574774
0.00510385
-0.00644397
-0.00713348
-0.00775103
-0.00816091
-0.0081092
-0.00722197
-0.005174
-0.00221147
0.0392144
0.00382829
-0.0430427
0.0352515
0.00396296
0.0311368
0.00411472
0.0268541
0.00428261
0.0223809
0.00447324
0.0176883
0.00469262
0.0127574
0.00493093
0.00766668
0.00509069
0.0028906
0.00477608
0.0028906
0.0391022
0.00766343
-0.0429374
0.0351355
0.00792969
0.0310207
0.00822948
0.0267418
0.00856153
0.022276
0.00893905
0.0175946
0.00937403
0.0126781
0.00984741
0.00760688
0.0101619
0.00286698
0.00951597
0.00575758
0.038866
0.0115101
-0.0427128
0.0348935
0.0119022
0.0307798
0.0123432
0.0265089
0.0128325
0.0220579
0.01339
0.0173988
0.0140331
0.0125146
0.0147317
0.0074901
0.0151864
0.00280967
0.0141964
0.00856725
0.0384837
0.0153661
-0.0423397
0.0345084
0.0158775
0.0304006
0.016451
0.0261449
0.0170881
0.0217193
0.0178157
0.0170964
0.0186559
0.0122625
0.0195656
0.00730924
0.0201397
0.00272326
0.0187824
0.0112905
0.0379273
0.0192236
-0.0417847
0.0339563
0.0198485
0.0298632
0.0205441
0.0256341
0.0213172
0.0212475
0.0222023
0.0166774
0.023226
0.0119145
0.0243285
0.00706034
0.0249939
0.00260509
0.0232376
0.0138956
0.0371771
0.0230744
-0.0410279
0.0332174
0.0238083
0.0291477
0.0246138
0.0249577
0.0255072
0.0206262
0.0265338
0.0161286
0.0277236
0.011461
0.028996
0.0067374
0.0297175
0.00245255
0.0275225
0.0163481
0.0361885
0.026912
-0.0400261
0.0322519
0.0277449
0.0282227
0.028643
0.024092
0.0296378
0.019837
0.0307888
0.0154352
0.0321254
0.010891
0.0335401
0.00633368
0.0342748
0.00226305
0.0315931
0.0186112
0.0349872
0.03073
-0.0388052
0.0310641
0.031668
0.0270877
0.0326193
0.0230358
0.0336898
0.0188767
0.034948
0.0145925
0.0364096
0.0101995
0.0379331
0.00584557
0.0386288
0.00203545
0.0354032
0.0206467
0.0333247
0.034621
-0.0372157
0.0294475
0.0355452
0.0255961
0.0364707
0.0216833
0.0376026
0.0176739
0.0389573
0.0135581
0.0405255
0.00936404
0.0421271
0.00526331
0.0427295
0.00176809
0.0388984
0.0224147
0.0316424
-0.0358966
0.0278451
0.0240439
0.020196
0.0163069
0.0123628
0.00839292
0.00458818
0.00146395
0.047465
-0.000209557
0.0476738
-0.000208767
0.0478741
-0.000200327
0.0480609
-0.000186787
0.0482292
-0.000168276
0.0483739
-0.000144769
0.0484898
-0.000115906
0.048571
-8.11471e-05
0.048611
-4.00646e-05
0.0486026
8.40509e-06
0.0485324
7.02843e-05
0.0483925
0.000139903
0.0481725
0.000219944
0.0478604
0.00031215
0.0474422
0.000418163
0.0469016
0.000540568
0.0462184
0.000683241
0.0453682
0.000850153
0.044326
0.00104219
0.00128333
0.047644
-0.000408704
0.047841
-0.000405835
0.0480286
-0.000387878
0.0482021
-0.000360336
0.048357
-0.000323163
0.0484883
-0.000276036
0.0485906
-0.000218184
0.0486581
-0.000148641
0.0486847
-6.67497e-05
0.048661
3.21961e-05
0.0485759
0.000155338
0.0484211
0.000294684
0.0481861
0.000454945
0.0478586
0.000639683
0.0474243
0.000852438
0.0468672
0.00109765
0.0461676
0.00138288
0.0453006
0.00171717
0.0442412
0.00210153
0.0025872
0.0479968
-0.000581579
0.0481673
-0.00057634
0.0483282
-0.000548764
0.0484748
-0.000506947
0.0486025
-0.000450827
0.0487063
-0.000379863
0.048781
-0.000292882
0.0488209
-0.000188578
0.0488201
-6.59257e-05
0.0487651
8.72091e-05
0.0486497
0.000270687
0.0484647
0.000479761
0.0481992
0.000720454
0.0478407
0.000998154
0.0473746
0.00131852
0.0467839
0.00168831
0.0460507
0.00211612
0.0451496
0.00261827
0.0440565
0.00319468
0.0039309
0.0485084
-0.000713849
0.0486374
-0.000705318
0.0487565
-0.00066788
0.0488611
-0.000611556
0.0489464
-0.000536155
0.0490074
-0.000440878
0.0490388
-0.000324246
0.0490354
-0.000185154
0.0489939
-2.44489e-05
0.0488909
0.000190178
0.0487288
0.000432849
0.0484971
0.000711461
0.0481847
0.00103281
0.0477791
0.00140381
0.0472654
0.00183218
0.0466257
0.00232798
0.0458408
0.00290101
0.044887
0.00357209
0.0437423
0.00433939
0.0053335
0.0491587
-0.000789469
0.0492298
-0.000776435
0.0492908
-0.000728879
0.0493371
-0.000657876
0.0493641
-0.000563117
0.0493669
-0.000443683
0.0493411
-0.000298444
0.0492811
-0.000125158
0.049168
8.86404e-05
0.0490024
0.000355707
0.0487771
0.000658217
0.0484818
0.00100671
0.0481057
0.00140898
0.0476358
0.00187366
0.0470577
0.00241028
0.0463534
0.00303225
0.0455036
0.00375086
0.0444801
0.00459555
0.0432663
0.00555326
0.00681501
0.0499231
-0.000790681
0.0499184
-0.000771716
0.0499035
-0.000713982
0.0498738
-0.000628169
0.0498243
-0.000513627
0.0497497
-0.000369106
0.0496447
-0.000193415
0.0495151
4.38806e-06
0.0493138
0.000289995
0.0490667
0.000602847
0.0487598
0.000965096
0.0483825
0.00138403
0.0479238
0.00186763
0.047371
0.00242647
0.0467099
0.00307141
0.0459222
0.00381989
0.0449907
0.00468241
0.0438843
0.00570191
0.0425937
0.00684385
0.00838078
0.0507757
-0.000697757
0.0506753
-0.000671359
0.0505651
-0.000603796
0.0504404
-0.000503401
0.0502954
-0.000368695
0.0501273
-0.000200985
0.0499454
-1.14646e-05
0.0496803
0.000269487
0.0493875
0.000582792
0.0490426
0.000947683
0.0486364
0.00137128
0.048159
0.00186143
0.0475995
0.00242714
0.0469451
0.00308087
0.0461826
0.00383391
0.0452934
0.00470916
0.0442633
0.00571252
0.0430569
0.00690823
0.0416808
0.00822002
0.0100355
0.0516889
-0.000491118
0.0514745
-0.000456994
0.0512504
-0.000379667
0.0510118
-0.000264842
0.0507596
-0.000116483
0.0504832
7.54042e-05
0.0501392
0.000332512
0.0497743
0.000634394
0.0493652
0.000991887
0.0489025
0.00141037
0.0483775
0.00189637
0.0477801
0.00245875
0.0471003
0.00310702
0.0463256
0.00385551
0.0454451
0.00471444
0.0444408
0.00571347
0.0433059
0.00684736
0.0420005
0.00821368
0.0405498
0.00967072
0.0117801
0.0526359
-0.000146611
0.0522835
-0.000104532
0.0519341
-3.02848e-05
0.0515663
0.00010294
0.0511659
0.000283971
0.0507295
0.00051173
0.050269
0.000793011
0.04977
0.00113345
0.0492241
0.00153774
0.0486233
0.00201123
0.0479586
0.00256102
0.0472205
0.00319682
0.0463991
0.00392849
0.0454821
0.00477242
0.0444597
0.00573685
0.0433131
0.00686008
0.0420424
0.00811808
0.0406002
0.00965589
0.0390618
0.0112092
0.0136262
0.0536414
0.000363936
0.0531285
0.000408381
0.0525975
0.000500694
0.0520556
0.000644929
0.0514974
0.000842117
0.0509146
0.00109458
0.0502998
0.00140777
0.0496461
0.00178711
0.0489464
0.00223745
0.0481928
0.00276487
0.0473769
0.00337691
0.0464901
0.00408359
0.0455243
0.0048943