/*--------------------------------*- C++ -*----------------------------------*\
| =========                 |                                                 |
| \\      /  F ield         | OpenFOAM: The Open Source CFD Toolbox           |
|  \\    /   O peration     | Version:  4.1                                   |
|   \\  /    A nd           | Web:      www.OpenFOAM.org                      |
|    \\/     M anipulation  |                                                 |
\*---------------------------------------------------------------------------*/
FoamFile
{
    version     2.0;
    format      ascii;
    class       volVectorField;
    location    "4";
    object      U;
}
// * * * * * * * * * * * * * * * * * * * * * * * * * * * * * * * * * * * * * //

dimensions      [0 1 -1 0 0 0 0];

internalField   nonuniform List<vector> 
2000
(
(0.00362512 0.002544 1.53358e-20)
(0.0919156 -0.0363532 0)
(0.241378 -0.0827125 2.1192e-20)
(0.419253 -0.128629 8.42371e-21)
(0.598439 -0.167408 -1.54023e-20)
(0.758293 -0.196154 -1.55212e-20)
(0.887436 -0.214862 5.35863e-21)
(0.98272 -0.225408 0)
(1.04867 -0.227109 -5.43807e-22)
(1.08096 -0.234021 0)
(0.0182128 -0.0069429 -7.52435e-21)
(0.143587 -0.0562717 6.04336e-21)
(0.331782 -0.102773 -2.48344e-20)
(0.539083 -0.142272 -3.02344e-20)
(0.731786 -0.171139 -5.06677e-22)
(0.889512 -0.189182 4.85168e-21)
(1.00551 -0.198292 -4.45094e-21)
(1.08251 -0.20092 -1.70936e-21)
(1.1283 -0.19788 5.43807e-22)
(1.14602 -0.200337 -3.56734e-21)
(0.0381506 -0.0163279 8.83125e-21)
(0.208004 -0.0731687 -8.27198e-21)
(0.436118 -0.115362 1.25442e-20)
(0.666509 -0.144746 -8.28672e-22)
(0.862111 -0.162107 8.09465e-21)
(1.00746 -0.169961 5.82149e-21)
(1.10332 -0.171438 3.65955e-21)
(1.15874 -0.169145 1.70937e-21)
(1.18508 -0.164416 -7.09412e-22)
(1.19047 -0.164285 2.12467e-21)
(0.0640503 -0.0248066 -5.15415e-22)
(0.284673 -0.0845705 -9.23595e-21)
(0.550249 -0.117603 0)
(0.794005 -0.134388 9.72938e-21)
(0.981408 -0.140519 -9.65932e-21)
(1.10645 -0.140266 0)
(1.17879 -0.136888 0)
(1.21309 -0.132315 0)
(1.22295 -0.127334 7.09432e-22)
(1.21701 -0.126581 -5.71806e-21)
(0.0961906 -0.0313327 2.2748e-20)
(0.371677 -0.0879125 -2.10903e-22)
(0.668307 -0.107488 8.03176e-21)
(0.914042 -0.111052 5.76412e-21)
(1.08387 -0.107928 4.03431e-21)
(1.18414 -0.102567 2.24851e-21)
(1.23296 -0.0972744 0)
(1.2488 -0.0928317 -4.59208e-22)
(1.24584 -0.0894853 7.3777e-21)
(1.23296 -0.0892865 -1.09081e-20)
(0.134362 -0.0346732 -3.59812e-20)
(0.465614 -0.0809389 1.01428e-21)
(0.783703 -0.0842337 -1.54003e-20)
(1.0205 -0.0758749 1.2883e-20)
(1.16648 -0.0665533 -1.00988e-20)
(1.24092 -0.0592685 3.44502e-21)
(1.26859 -0.0546033 0)
(1.26972 -0.0520564 4.59227e-22)
(1.25777 -0.0511525 -1.40505e-21)
(1.24016 -0.0521881 -1.21044e-20)
(0.177745 -0.0335363 0)
(0.561885 -0.0621468 0)
(0.890284 -0.0483227 -7.32359e-21)
(1.10939 -0.0308147 6.81802e-21)
(1.22856 -0.0187524 -2.42681e-21)
(1.27871 -0.012434 2.27844e-21)
(1.28882 -0.0103882 -1.89932e-21)
(1.2791 -0.0109603 1.7953e-21)
(1.26129 -0.0131031 5.87348e-21)
(1.24117 -0.0159103 -2.74506e-21)
(0.224857 -0.0267485 6.7456e-21)
(0.655293 -0.0311099 0)
(0.983157 -0.00127044 -2.99127e-21)
(1.17872 0.0218086 1.05312e-20)
(1.27098 0.0332943 -4.84655e-21)
(1.29995 0.0363114 0)
(1.29647 0.0343527 0)
(1.27932 0.029941 0)
(1.25811 0.0245498 7.71685e-21)
(1.23678 0.0196124 -7.33492e-21)
(0.273614 -0.0134439 -3.61113e-21)
(0.740799 0.0114283 -3.13002e-22)
(1.05895 0.0547134 -3.96174e-21)
(1.22808 0.0796351 9.41709e-22)
(1.29536 0.0876802 1.04798e-21)
(1.30702 0.0856695 2.15256e-22)
(1.29373 0.0788275 0)
(1.272 0.0701921 1.04513e-21)
(1.24918 0.0614588 6.18383e-21)
(1.22763 0.0540323 -4.6761e-21)
(0.321515 0.00675425 0)
(0.814192 0.0637538 -2.62292e-21)
(1.11575 0.117077 0)
(1.25803 0.140412 -7.28243e-22)
(1.30354 0.142755 -6.59599e-22)
(1.3019 0.134565 2.19991e-22)
(1.28212 0.12236 0)
(1.25806 0.109346 -1.04518e-21)
(1.23501 0.0972723 -1.26392e-21)
(1.21405 0.0871256 -1.65787e-21)
(-0.00688352 0.00572316 0)
(-0.0231529 0.00842891 -2.01715e-22)
(-0.0406691 0.00694332 0)
(-0.0509451 0.00348676 -1.32872e-22)
(-0.0525744 -0.000986471 -7.22283e-24)
(-0.0458045 -0.00599866 -1.26255e-22)
(-0.0312623 -0.0111923 1.18898e-22)
(-0.00977534 -0.016275 -2.43922e-22)
(0.0175687 -0.0208088 6.59213e-23)
(0.0489812 -0.0241872 -3.79025e-22)
(-0.00799278 0.0165156 -7.17181e-22)
(-0.0233221 0.0242229 4.0552e-22)
(-0.0378393 0.0197619 -4.37272e-22)
(-0.0442799 0.00949638 1.06397e-22)
(-0.0416802 -0.0037608 2.10124e-22)
(-0.0304617 -0.0185666 -1.03176e-23)
(-0.0114321 -0.0338842 0)
(0.0144459 -0.048801 2.43105e-22)
(0.0460561 -0.0622009 3.32024e-22)
(0.0816907 -0.0721659 0)
(-0.00999179 0.0254328 4.97996e-22)
(-0.0234302 0.0369692 0)
(-0.0321223 0.029459 1.35997e-21)
(-0.0310958 0.0126695 -1.49945e-21)
(-0.0201871 -0.00888937 4.30985e-22)
(-0.000220202 -0.0328201 0)
(0.0276819 -0.0574448 0)
(0.0620833 -0.0813483 0)
(0.101747 -0.102884 -2.41857e-21)
(0.145526 -0.118855 2.29869e-21)
(-0.0124488 0.0315886 0)
(-0.0229843 0.0451034 -1.55466e-21)
(-0.0232937 0.0343 2.74928e-21)
(-0.0114519 0.011379 -1.21872e-21)
(0.0116029 -0.0177955 6.79622e-22)
(0.0443422 -0.0498274 -1.24797e-21)
(0.085052 -0.082455 7.5925e-22)
(0.131634 -0.113897 -1.74487e-22)
(0.182391 -0.142123 -1.78248e-21)
(0.237489 -0.162897 2.59254e-21)
(-0.0148317 0.0345836 1.92601e-21)
(-0.0212209 0.0476575 -4.50021e-21)
(-0.0107348 0.0330524 -3.26973e-22)
(0.0150087 0.00429979 1.47486e-22)
(0.053737 -0.0316213 7.40209e-22)
(0.102924 -0.0704363 -3.16361e-21)
(0.159824 -0.109314 0)
(0.221422 -0.146105 -2.78016e-22)
(0.284987 -0.17879 -1.52105e-22)
(0.35324 -0.202251 3.0527e-21)
(-0.016591 0.0344587 -2.78983e-22)
(-0.0171339 0.0443255 5.09443e-21)
(0.00662848 0.025132 2.08741e-21)
(0.0494239 -0.00920773 2.70308e-21)
(0.107217 -0.0508427 1.46026e-21)
(0.175993 -0.0948236 1.09762e-21)
(0.25155 -0.137718 0)
(0.32964 -0.177051 2.77999e-22)
(0.405895 -0.211245 -7.58764e-22)
(0.486788 -0.234297 -4.02137e-22)
(-0.017185 0.0315868 1.02052e-22)
(-0.00940753 0.035422 3.35388e-21)
(0.0305913 0.0107449 0)
(0.0938 -0.0288506 -3.78609e-21)
(0.173904 -0.0749584 4.41885e-21)
(0.264685 -0.122022 0)
(0.359886 -0.166179 0)
(0.453788 -0.204803 0)
(0.540358 -0.237166 -8.04097e-22)
(0.629915 -0.256224 1.54749e-21)
(-0.0160866 0.0264852 -4.30828e-21)
(0.00353353 0.0217142 4.03562e-21)
(0.0635327 -0.00917119 7.36196e-21)
(0.150867 -0.0533791 9.61567e-22)
(0.256079 -0.102166 5.43003e-21)
(0.369837 -0.149608 4.41357e-21)
(0.483334 -0.191797 3.32495e-21)
(0.589414 -0.226433 2.1997e-21)
(0.681621 -0.253722 8.0405e-22)
(0.772097 -0.265859 2.70443e-22)
(-0.0127173 0.0196624 -1.65576e-20)
(0.023486 0.00428633 -4.09509e-21)
(0.108127 -0.0329715 -1.53718e-20)
(0.223341 -0.0804456 -6.63217e-21)
(0.355214 -0.129337 7.82149e-22)
(0.490392 -0.173851 -3.68333e-21)
(0.617602 -0.210679 4.3736e-21)
(0.729016 -0.238608 -2.19958e-21)
(0.820337 -0.258102 1.14494e-21)
(0.901574 -0.262769 2.04049e-22)
(-0.00640564 0.0115541 1.147e-20)
(0.0523485 -0.0155698 0)
(0.166862 -0.0584045 8.55234e-21)
(0.312933 -0.106787 -9.19157e-23)
(0.47061 -0.152438 7.73863e-22)
(0.622253 -0.190517 4.33399e-21)
(0.75527 -0.219087 -1.2469e-20)
(0.862925 -0.238591 0)
(0.945479 -0.248651 -1.14491e-21)
(1.00679 -0.250021 0)
(0.0808236 -0.0255291 0)
(0.113473 -0.0265876 6.14457e-22)
(0.147344 -0.027496 -1.30211e-21)
(0.182512 -0.0281021 5.99789e-22)
(0.218546 -0.0283659 0)
(0.254989 -0.0283184 -8.24628e-22)
(0.291462 -0.0279995 8.28718e-22)
(0.327644 -0.0274449 0)
(0.363234 -0.0266888 0)
(0.397963 -0.0257664 -1.03475e-22)
(0.431603 -0.0247131 0)
(0.463977 -0.0235632 0)
(0.494948 -0.0223485 0)
(0.524425 -0.0210979 0)
(0.552336 -0.0198376 1.31804e-22)
(0.57873 -0.0185901 -1.32487e-22)
(0.603337 -0.0173811 0)
(0.627236 -0.0162058 3.00372e-23)
(0.646876 -0.0151829 -3.01953e-23)
(0.674837 -0.0139354 0)
(0.115226 -0.0759053 0)
(0.147305 -0.0789709 -1.28411e-22)
(0.180124 -0.0815878 0)
(0.214201 -0.083295 -2.77972e-21)
(0.248985 -0.0839926 2.69982e-21)
(0.28398 -0.0837793 -1.92124e-22)
(0.318854 -0.0827746 1.64523e-21)
(0.353334 -0.0810829 -3.51577e-21)
(0.387166 -0.0788044 3.10717e-21)
(0.420109 -0.0760421 -1.75012e-21)
(0.451966 -0.0729009 -1.53371e-21)
(0.482582 -0.0694814 2.79718e-21)
(0.511842 -0.0658771 -1.44754e-21)
(0.539674 -0.0621725 -7.50614e-22)
(0.566016 -0.0584447 5.97313e-22)
(0.590933 -0.054757 -1.17819e-22)
(0.614145 -0.0511907 -9.54215e-23)
(0.636751 -0.0477113 -1.17483e-22)
(0.655217 -0.0447185 1.18052e-22)
(0.68173 -0.0409792 -1.84995e-23)
(0.181572 -0.124242 8.92018e-23)
(0.212481 -0.128983 1.28631e-22)
(0.243165 -0.132998 1.3332e-22)
(0.274999 -0.135497 0)
(0.30726 -0.136364 3.24145e-21)
(0.339379 -0.135784 -2.53168e-21)
(0.371105 -0.133954 0)
(0.402264 -0.131043 3.97162e-22)
(0.432677 -0.127211 2.03574e-22)
(0.462167 -0.122623 -2.70178e-21)
(0.490585 -0.117449 1.39799e-22)
(0.517821 -0.111851 3.3402e-21)
(0.543802 -0.105976 1.65428e-22)
(0.568489 -0.0999594 1.55137e-22)
(0.591839 -0.0939227 1.33141e-22)
(0.613942 -0.0879608 -3.00068e-22)
(0.634517 -0.0822139 2.79345e-22)
(0.654647 -0.0765857 3.27079e-22)
(0.670971 -0.071809 7.36585e-23)
(0.694686 -0.0656982 5.00654e-24)
(0.275457 -0.168948 2.79523e-21)
(0.304436 -0.174874 7.16557e-22)
(0.331801 -0.179852 5.45479e-22)
(0.360122 -0.182714 -4.31372e-21)
(0.388545 -0.183391 -4.72956e-22)
(0.416398 -0.182179 -1.79975e-22)
(0.443526 -0.179349 5.56399e-21)
(0.469888 -0.175124 -3.11264e-21)
(0.495408 -0.169718 -3.02216e-21)
(0.519988 -0.163354 3.12128e-21)
(0.543547 -0.156257 -1.23894e-22)
(0.566037 -0.148641 -3.35556e-21)
(0.587435 -0.140702 -1.64049e-22)
(0.607748 -0.132612 -1.38949e-21)
(0.626959 -0.12453 9.73953e-22)
(0.645181 -0.116567 7.96552e-22)
(0.662144 -0.108924 -7.1495e-22)
(0.678873 -0.101412 0)
(0.692318 -0.0951214 -1.22979e-22)
(0.712192 -0.0869093 -1.6965e-23)
(0.391031 -0.207994 -3.31245e-21)
(0.416919 -0.214606 2.82612e-21)
(0.439671 -0.220123 -2.97067e-21)
(0.4631 -0.222936 0)
(0.486337 -0.223094 3.04957e-22)
(0.508604 -0.221034 5.22461e-21)
(0.529838 -0.217086 6.08945e-22)
(0.550141 -0.211513 1.35303e-22)
(0.56955 -0.204576 -5.64458e-21)
(0.58806 -0.196555 -3.62363e-22)
(0.605668 -0.187724 0)
(0.622395 -0.17834 3.34832e-22)
(0.638276 -0.168635 0)
(0.65336 -0.158809 2.83545e-22)
(0.667663 -0.149043 0)
(0.681307 -0.139451 0)
(0.694049 -0.13029 -1.71786e-22)
(0.706792 -0.121244 2.02029e-22)
(0.716945 -0.113792 -1.7676e-22)
(0.732336 -0.103825 5.29021e-23)
(0.521132 -0.23906 0)
(0.542246 -0.24602 1.4049e-22)
(0.559102 -0.251791 6.31618e-21)
(0.576319 -0.254298 -6.11006e-21)
(0.593116 -0.253771 2.43536e-22)
(0.608647 -0.250795 0)
(0.62293 -0.245736 5.07008e-21)
(0.6362 -0.238888 -9.99995e-21)
(0.648609 -0.230571 5.56449e-21)
(0.660255 -0.221122 3.2154e-22)
(0.67122 -0.210855 3.14562e-22)
(0.681594 -0.200061 3.00938e-22)
(0.691463 -0.188992 0)
(0.700913 -0.177859 -1.71542e-21)
(0.709979 -0.16686 3.90812e-21)
(0.718777 -0.156084 -1.71005e-21)
(0.727103 -0.145853 1.5473e-22)
(0.735661 -0.135684 1.14096e-22)
(0.742456 -0.127462 -4.93738e-23)
(0.753165 -0.116154 4.85474e-23)
(0.657185 -0.259925 -1.15005e-21)
(0.671631 -0.267164 0)
(0.681584 -0.273078 1.34614e-22)
(0.69163 -0.275242 -3.88254e-22)
(0.701051 -0.274102 -4.63686e-22)
(0.70902 -0.270349 -2.51146e-22)
(0.71564 -0.264357 -2.7539e-22)
(0.721267 -0.256466 4.57619e-21)
(0.726179 -0.247072 -5.49767e-21)
(0.730596 -0.236572 -5.53021e-21)
(0.734697 -0.225314 4.58803e-21)
(0.738622 -0.213599 -5.8101e-22)
(0.742487 -0.201684 2.07142e-21)
(0.746384 -0.189771 -4.61259e-22)
(0.750354 -0.178058 -2.28942e-21)
(0.754474 -0.166596 -1.81226e-22)
(0.758592 -0.155775 2.17507e-22)
(0.76314 -0.144917 -2.72749e-22)
(0.766821 -0.136313 -4.16205e-22)
(0.773057 -0.124094 -2.25395e-23)
(0.789581 -0.269175 0)
(0.796129 -0.276947 3.14296e-21)
(0.798819 -0.283024 -3.26445e-21)
(0.801268 -0.285027 1.82547e-22)
(0.80278 -0.283614 4.23285e-22)
(0.802736 -0.279454 2.50915e-22)
(0.801387 -0.272922 5.32156e-22)
(0.799219 -0.264428 0)
(0.796643 -0.254431 2.98596e-22)
(0.794007 -0.243373 2.99255e-22)
(0.791575 -0.231644 2.80897e-22)
(0.789504 -0.219555 5.49329e-22)
(0.787896 -0.207353 0)
(0.786808 -0.195209 0)
(0.786259 -0.183315 2.09038e-22)
(0.78625 -0.171663 1.60257e-21)
(0.786698 -0.160713 -1.10693e-21)
(0.787712 -0.149584 1.00442e-22)
(0.78874 -0.14095 2.08575e-22)
(0.791015 -0.128216 -5.99911e-23)
(0.90935 -0.267984 -2.18888e-22)
(0.908501 -0.277002 0)
(0.90415 -0.283283 0)
(0.898696 -0.285397 5.71853e-21)
(0.891922 -0.284037 9.08636e-22)
(0.883772 -0.279767 -1.43853e-20)
(0.874699 -0.273058 7.33297e-21)
(0.86529 -0.264405 0)
(0.856029 -0.254285 0)
(0.847263 -0.243148 0)
(0.839253 -0.231415 -1.42863e-22)
(0.832149 -0.219397 -3.93949e-22)
(0.826014 -0.207329 -3.73466e-21)
(0.820843 -0.195354 3.59948e-21)
(0.816617 -0.183662 -1.44561e-21)
(0.813244 -0.172184 1.26863e-21)
(0.810723 -0.161456 0)
(0.808822 -0.150398 -4.97269e-23)
(0.807742 -0.142026 -5.94097e-23)
(0.806762 -0.12918 0)
(1.01138 -0.260143 9.64131e-24)
(1.00517 -0.268607 2.95803e-21)
(0.993185 -0.273774 -2.92718e-21)
(0.978918 -0.275571 0)
(0.963774 -0.274234 -6.73808e-21)
(0.948214 -0.270215 1.41906e-20)
(0.932626 -0.264031 -7.44519e-21)
(0.917481 -0.256125 0)
(0.903147 -0.246904 -4.28638e-21)
(0.889827 -0.236729 8.49194e-21)
(0.877677 -0.225906 -4.33862e-21)
(0.866806 -0.214689 1.26567e-22)
(0.857246 -0.20331 0)
(0.848942 -0.191918 3.30974e-21)
(0.841869 -0.180736 -4.55421e-21)
(0.835843 -0.169666 1.36898e-21)
(0.830982 -0.159344 8.72098e-22)
(0.826712 -0.148529 -6.14441e-22)
(0.823968 -0.140535 -2.92955e-22)
(0.820393 -0.127852 0)
(1.10132 -0.230267 0)
(1.08276 -0.237639 0)
(1.05908 -0.24256 0)
(1.03563 -0.245966 0)
(1.01386 -0.247384 0)
(0.993374 -0.246531 0)
(0.973816 -0.243561 0)
(0.955253 -0.238791 0)
(0.937883 -0.232537 0)
(0.92184 -0.225054 0)
(0.907196 -0.21657 0)
(0.893965 -0.207322 0)
(0.882151 -0.197563 0)
(0.871676 -0.187456 0)
(0.862549 -0.177268 0)
(0.854522 -0.166902 0)
(0.847865 -0.157075 0)
(0.841682 -0.146494 0)
(0.837604 -0.138609 0)
(0.831739 -0.125844 0)
(1.12351 -0.206591 0)
(1.10547 -0.215532 0)
(1.08125 -0.221741 0)
(1.05711 -0.22572 0)
(1.03499 -0.227506 0)
(1.01432 -0.227117 0)
(0.994523 -0.224761 0)
(0.975632 -0.220745 0)
(0.957868 -0.215355 0)
(0.941369 -0.208843 0)
(0.926177 -0.201446 0)
(0.912283 -0.193382 0)
(0.899693 -0.184868 0)
(0.888331 -0.17603 0)
(0.87825 -0.167106 0)
(0.869162 -0.157969 0)
(0.861484 -0.1493 0)
(0.854054 -0.139837 0)
(0.849134 -0.13285 0)
(0.841431 -0.121238 0)
(1.13291 -0.182437 0)
(1.11551 -0.192202 0)
(1.09218 -0.1992 0)
(1.0687 -0.203678 0)
(1.04712 -0.206011 0)
(1.02693 -0.206417 0)
(1.00756 -0.205073 0)
(0.988969 -0.202191 0)
(0.971398 -0.198008 0)
(0.954982 -0.192754 0)
(0.939763 -0.186642 0)
(0.925724 -0.179858 0)
(0.91288 -0.172594 0)
(0.901147 -0.164957 0)
(0.89061 -0.157173 0)
(0.880944 -0.149114 0)
(0.872682 -0.141436 0)
(0.864451 -0.132934 0)
(0.858989 -0.126686 0)
(0.85007 -0.116046 0)
(1.13261 -0.160414 0)
(1.11664 -0.170427 0)
(1.09511 -0.17786 0)
(1.07315 -0.182803 0)
(1.05276 -0.18569 0)
(1.0336 -0.186814 0)
(1.01514 -0.186341 0)
(0.997342 -0.184434 0)
(0.980405 -0.181295 0)
(0.964473 -0.177128 0)
(0.949595 -0.172129 0)
(0.935758 -0.166463 0)
(0.922986 -0.1603 0)
(0.911196 -0.153736 0)
(0.900505 -0.14698 0)
(0.890556 -0.139906 0)
(0.881984 -0.133133 0)
(0.873252 -0.12552 0)
(0.867467 -0.119941 0)
(0.857722 -0.110218 0)
(1.12671 -0.140861 0)
(1.11245 -0.150697 0)
(1.09306 -0.158246 0)
(1.07302 -0.163471 0)
(1.05418 -0.166764 0)
(1.03634 -0.168434 0)
(1.01906 -0.168644 0)
(1.0023 -0.167532 0)
(0.986249 -0.165266 0)
(0.971033 -0.162025 0)
(0.956718 -0.157985 0)
(0.943297 -0.153292 0)
(0.930807 -0.148099 0)
(0.919166 -0.142488 0)
(0.90852 -0.136653 0)
(0.898491 -0.130469 0)
(0.889795 -0.124519 0)
(0.880772 -0.117731 0)
(0.874811 -0.112769 0)
(0.864505 -0.103935 0)
(1.11832 -0.1237 0)
(1.10565 -0.133095 0)
(1.0884 -0.140509 0)
(1.07035 -0.145818 0)
(1.05315 -0.149354 0)
(1.03671 -0.151407 0)
(1.02068 -0.152134 0)
(1.00505 -0.151651 0)
(0.989966 -0.1501 0)
(0.975565 -0.147633 0)
(0.961916 -0.144406 0)
(0.949021 -0.140548 0)
(0.93693 -0.136195 0)
(0.925562 -0.131416 0)
(0.915088 -0.126394 0)
(0.905112 -0.121005 0)
(0.896419 -0.115792 0)
(0.887251 -0.109758 0)
(0.881214 -0.105359 0)
(0.870547 -0.0973663 0)
(1.10931 -0.108733 0)
(1.09802 -0.117502 0)
(1.08271 -0.124587 0)
(1.06651 -0.129812 0)
(1.05087 -0.133442 0)
(1.03578 -0.135734 0)
(1.02096 -0.136829 0)
(1.00642 -0.136826 0)
(0.992305 -0.135842 0)
(0.978729 -0.134007 0)
(0.965771 -0.131457 0)
(0.95344 -0.128304 0)
(0.941798 -0.124669 0)
(0.930765 -0.120613 0)
(0.920534 -0.116301 0)
(0.910693 -0.111616 0)
(0.902082 -0.10706 0)
(0.892873 -0.101712 0)
(0.88683 -0.0978232 0)
(0.875944 -0.0906189 0)
(1.10068 -0.0956159 0)
(1.0905 -0.103655 0)
(1.07687 -0.110285 0)
(1.06232 -0.115301 0)
(1.04809 -0.118906 0)
(1.03421 -0.121317 0)
(1.02051 -0.122654 0)
(1.00698 -0.123002 0)
(0.993768 -0.122457 0)
(0.980977 -0.12113 0)
(0.968687 -0.119136 0)
(0.956915 -0.116574 0)
(0.945729 -0.113552 0)
(0.935054 -0.110118 0)
(0.925098 -0.106425 0)
(0.915438 -0.102362 0)
(0.906958 -0.0983918 0)
(0.897774 -0.0936646 0)
(0.891769 -0.0902364 0)
(0.880771 -0.0837689 0)
(1.09281 -0.0839966 0)
(1.08352 -0.0912732 0)
(1.0713 -0.0973795 0)
(1.05818 -0.102102 0)
(1.04518 -0.10559 0)
(1.03239 -0.108022 0)
(1.01968 -0.1095 0)
(1.00706 -0.110091 0)
(0.994669 -0.109878 0)
(0.982599 -0.108953 0)
(0.970932 -0.107414 0)
(0.959689 -0.105345 0)
(0.948946 -0.102841 0)
(0.938626 -0.0999441 0)
(0.928954 -0.0967912 0)
(0.919497 -0.0932782 0)
(0.911173 -0.0898277 0)
(0.902059 -0.0856644 0)
(0.89612 -0.0826522 0)
(0.885084 -0.0768725 0)
(1.08581 -0.0735976 0)
(1.07722 -0.0801169 0)
(1.06617 -0.0856652 0)
(1.05427 -0.0900354 0)
(1.04235 -0.0933381 0)
(1.0305 -0.095715 0)
(1.01866 -0.0972498 0)
(1.00686 -0.0979992 0)
(0.995196 -0.0980293 0)
(0.983778 -0.0974171 0)
(0.972682 -0.0962458 0)
(0.961928 -0.0945867 0)
(0.951599 -0.092522 0)
(0.941621 -0.0900869 0)
(0.932227 -0.0874048 0)
(0.922979 -0.0843788 0)
(0.914822 -0.0813918 0)
(0.905804 -0.0777415 0)
(0.899947 -0.0751059 0)
(0.888925 -0.0699691 0)
(1.07964 -0.0641992 0)
(1.07161 -0.0699809 0)
(1.06154 -0.074958 0)
(1.05067 -0.0789394 0)
(1.03967 -0.0820053 0)
(1.02865 -0.0842682 0)
(1.01757 -0.0857953 0)
(1.00648 -0.0866319 0)
(0.995468 -0.0868318 0)
(0.984633 -0.0864585 0)
(0.974049 -0.0855818 0)
(0.96374 -0.0842613 0)
(0.953794 -0.0825681 0)
(0.944135 -0.0805313 0)
(0.935006 -0.0782608 0)
(0.925966 -0.0756674 0)
(0.917976 -0.0730951 0)
(0.909069 -0.0699132 0)
(0.903301 -0.0676201 0)
(0.892327 -0.063086 0)
(1.07424 -0.055621 0)
(1.06667 -0.0606923 0)
(1.05742 -0.0650991 0)
(1.04741 -0.0686701 0)
(1.0372 -0.0714633 0)
(1.02689 -0.0735674 0)
(1.01647 -0.0750349 0)
(1.006 -0.0759018 0)
(0.99556 -0.0762113 0)
(0.985241 -0.0760151 0)
(0.975115 -0.0753712 0)
(0.965206 -0.0743293 0)
(0.955606 -0.0729501 0)
(0.946241 -0.0712572 0)
(0.937359 -0.0693474 0)
(0.928516 -0.06714 0)
(0.920689 -0.0649402 0)
(0.911899 -0.0621881 0)
(0.906223 -0.060208 0)
(0.89532 -0.0562409 0)
(1.06956 -0.0477153 0)
(1.06235 -0.0521067 0)
(1.05377 -0.055952 0)
(1.0445 -0.0591016 0)
(1.03496 -0.0615974 0)
(1.02525 -0.0635085 0)
(1.0154 -0.0648758 0)
(1.00547 -0.0657272 0)
(0.995528 -0.0660968 0)
(0.985659 -0.0660267 0)
(0.975936 -0.0655642 0)
(0.966383 -0.0647502 0)
(0.957093 -0.0636362 0)
(0.947993 -0.062241 0)
(0.939337 -0.0606486 0)
(0.930678 -0.0587872 0)
(0.923004 -0.0569239 0)
(0.914331 -0.0545684 0)
(0.908743 -0.0528759 0)
(0.897924 -0.049445 0)
(1.06554 -0.04036 0)
(1.05863 -0.0441016 0)
(1.05061 -0.0473983 0)
(1.04194 -0.0501223 0)
(1.03296 -0.0523039 0)
(1.02376 -0.0539968 0)
(1.0144 -0.0552323 0)
(1.00492 -0.0560315 0)
(0.995412 -0.0564213 0)
(0.985933 -0.056435 0)
(0.97656 -0.0561112 0)
(0.967317 -0.055483 0)
(0.9583 -0.0545932 0)
(0.949435 -0.0534567 0)
(0.940981 -0.0521452 0)
(0.93249 -0.0505959 0)
(0.924956 -0.0490385 0)
(0.916394 -0.0470513 0)
(0.91089 -0.045625 0)
(0.90016 -0.0427036 0)
(1.06216 -0.0334516 0)
(1.05548 -0.0365713 0)
(1.04791 -0.0393336 0)
(1.03974 -0.0416321 0)
(1.03122 -0.0434889 0)
(1.02245 -0.0449451 0)
(1.01349 -0.0460243 0)
(1.0044 -0.0467425 0)
(0.995247 -0.0471202 0)
(0.986098 -0.0471838 0)
(0.977023 -0.0469637 0)
(0.968046 -0.0464865 0)
(0.959264 -0.045787 0)
(0.950603 -0.0448767 0)
(0.942325 -0.0438156 0)
(0.933982 -0.0425501 0)
(0.926573 -0.0412733 0)
(0.918115 -0.0396305 0)
(0.912686 -0.0384524 0)
(0.902044 -0.0360179 0)
(1.05937 -0.0268994 0)
(1.05287 -0.0294224 0)
(1.04567 -0.0316645 0)
(1.0379 -0.0335401 0)
(1.02975 -0.0350655 0)
(1.02132 -0.0362718 0)
(1.01269 -0.0371766 0)
(1.00392 -0.0377914 0)
(0.995061 -0.0381319 0)
(0.986184 -0.0382181 0)
(0.977356 -0.0380737 0)
(0.968601 -0.0377194 0)
(0.960015 -0.0371826 0)
(0.951526 -0.0364723 0)
(0.943398 -0.0356366 0)
(0.935182 -0.0346317 0)
(0.92788 -0.0336144 0)
(0.919514 -0.0322965 0)
(0.914151 -0.0313519 0)
(0.90359 -0.0293855 0)
(1.05715 -0.0206264 0)
(1.0508 -0.0225737 0)
(1.04387 -0.0243078 0)
(1.03641 -0.0257639 0)
(1.02855 -0.026954 0)
(1.0204 -0.0279012 0)
(1.01203 -0.0286182 0)
(1.0035 -0.0291129 0)
(0.994877 -0.0293968 0)
(0.986217 -0.0294846 0)
(0.977586 -0.0293941 0)
(0.969008 -0.0291406 0)
(0.960581 -0.0287448 0)
(0.952231 -0.0282135 0)
(0.944225 -0.0275833 0)
(0.936113 -0.0268208 0)
(0.9289 -0.026046 0)
(0.920609 -0.0250376 0)
(0.915302 -0.0243144 0)
(0.904812 -0.0228011 0)
(1.05547 -0.0145743 0)
(1.04923 -0.0159606 0)
(1.04251 -0.0171945 0)
(1.03528 -0.0182324 0)
(1.02763 -0.0190836 0)
(1.01968 -0.0197644 0)
(1.0115 -0.0202833 0)
(1.00316 -0.0206453 0)
(0.994716 -0.020858 0)
(0.986218 -0.0209317 0)
(0.977735 -0.0208785 0)
(0.969291 -0.0207091 0)
(0.960984 -0.0204378 0)
(0.95274 -0.0200696 0)
(0.944826 -0.0196296 0)
(0.936794 -0.0190956 0)
(0.929648 -0.01855 0)
(0.921418 -0.0178401 0)
(0.916153 -0.0173275 0)
(0.905719 -0.0162579 0)
(1.05433 -0.00865611 0)
(1.04817 -0.00950055 0)
(1.04159 -0.0102461 0)
(1.03451 -0.0108706 0)
(1.02701 -0.0113824 0)
(1.01919 -0.0117927 0)
(1.01115 -0.0121068 0)
(1.00293 -0.0123275 0)
(0.994599 -0.0124591 0)
(0.986209 -0.0125076 0)
(0.977824 -0.0124801 0)
(0.96947 -0.0123831 0)
(0.961242 -0.0122246 0)
(0.953069 -0.0120086 0)
(0.945217 -0.0117479 0)
(0.93724 -0.0114332 0)
(0.930138 -0.0111062 0)
(0.921951 -0.010689 0)
(0.916712 -0.0103758 0)
(0.906319 -0.00974784 0)
(1.05372 -0.00278053 0)
(1.04762 -0.00310257 0)
(1.04113 -0.00337442 0)
(1.03413 -0.00359563 0)
(1.02671 -0.00377358 0)
(1.01895 -0.00391472 0)
(1.01097 -0.0040222 0)
(1.00281 -0.00409766 0)
(0.994539 -0.00414289 0)
(0.986202 -0.00416014 0)
(0.977867 -0.00415188 0)
(0.969557 -0.00412049 0)
(0.961369 -0.00406837 0)
(0.953232 -0.00399734 0)
(0.945409 -0.00391074 0)
(0.937462 -0.00380728 0)
(0.93038 -0.00369741 0)
(0.92222 -0.00356153 0)
(0.916986 -0.00345337 0)
(0.906619 -0.00325 0)
(1.19511 0.076778 1.61975e-21)
(1.2079 0.0496852 0)
(1.21705 0.0209434 -2.72237e-22)
(1.2222 -0.00936633 -8.33929e-21)
(1.22338 -0.0410428 1.12757e-20)
(1.21949 -0.0740046 0)
(1.21116 -0.107926 6.71379e-21)
(1.1915 -0.143318 0)
(1.17248 -0.176658 3.74097e-21)
(1.11046 -0.217185 -7.14521e-23)
(1.17778 0.067241 -1.93873e-21)
(1.18936 0.0436942 3.73287e-22)
(1.19792 0.0187138 -3.74002e-22)
(1.20258 -0.00764468 -1.39409e-21)
(1.20496 -0.035155 -8.16529e-21)
(1.20147 -0.0640879 -4.58521e-22)
(1.19901 -0.0931176 0)
(1.18147 -0.125803 -1.0875e-20)
(1.17844 -0.151932 0)
(1.13238 -0.194901 -7.74631e-21)
(1.16307 0.0583422 4.02251e-21)
(1.17301 0.0376298 0)
(1.18072 0.015808 -3.59897e-22)
(1.18444 -0.0072879 -8.72195e-22)
(1.18765 -0.0308893 8.63454e-21)
(1.18389 -0.0564797 0)
(1.18502 -0.0802432 1.47938e-20)
(1.17001 -0.110445 1.12344e-20)
(1.17182 -0.130008 0)
(1.14206 -0.170985 7.66712e-21)
(1.15069 0.0506358 -1.83162e-21)
(1.1591 0.0323877 7.58493e-21)
(1.16595 0.0134322 0)
(1.16874 -0.00689093 1.13308e-20)
(1.17216 -0.0269572 6.1576e-22)
(1.16843 -0.0498586 -1.15952e-21)
(1.17044 -0.0692776 -1.41461e-20)
(1.15866 -0.0970277 -4.79217e-22)
(1.15929 -0.112693 -1.37886e-20)
(1.1412 -0.149059 0)
(1.14014 0.0439709 0)
(1.14733 0.0278871 -7.39403e-21)
(1.15331 0.0114328 -8.36215e-21)
(1.15542 -0.00655516 1.19238e-21)
(1.15838 -0.0236886 -7.64159e-22)
(1.15503 -0.0442449 -6.06527e-22)
(1.15611 -0.060568 -1.81131e-20)
(1.14739 -0.0854517 -1.02504e-21)
(1.14564 -0.0990043 -1.43454e-21)
(1.13444 -0.130029 1.39152e-20)
(1.13101 0.0381469 2.39981e-21)
(1.13725 0.0239622 5.07075e-22)
(1.14238 0.00963311 -1.35734e-21)
(1.14406 -0.00631188 4.56281e-22)
(1.14621 -0.0211163 -1.28462e-20)
(1.14339 -0.039401 0)
(1.14308 -0.0535483 1.98156e-20)
(1.13664 -0.0752314 -5.96673e-22)
(1.13319 -0.0874522 3.26789e-20)
(1.1254 -0.113604 -2.92549e-20)
(1.12306 0.0330197 -2.41162e-21)
(1.12852 0.0205281 -4.53545e-21)
(1.13285 0.00800797 7.90793e-21)
(1.13427 -0.00606294 -1.412e-20)
(1.13558 -0.0189968 -1.61828e-21)
(1.13325 -0.0350386 -1.23393e-20)
(1.13181 -0.0475621 6.46608e-22)
(1.12671 -0.0661557 -1.23075e-21)
(1.12237 -0.0773627 -1.64773e-20)
(1.11595 -0.0994517 1.53253e-20)
(1.11611 0.0284929 0)
(1.12093 0.0175296 9.81102e-21)
(1.12454 0.00656689 -1.058e-21)
(1.12575 -0.00576659 7.7008e-21)
(1.12637 -0.0171479 -6.59241e-22)
(1.12435 -0.0310797 2.45885e-20)
(1.12218 -0.0422882 -1.11068e-20)
(1.1177 -0.0581775 0)
(1.11296 -0.0684523 0)
(1.10702 -0.0871896 0)
(1.11005 0.0244943 0)
(1.11431 0.0149138 -8.99752e-21)
(1.11731 0.00531109 -5.72605e-22)
(1.1183 -0.00543424 7.86173e-21)
(1.11839 -0.0154773 1.43148e-20)
(1.11649 -0.0275138 -1.38067e-20)
(1.1139 -0.0375562 1.33571e-20)
(1.10965 -0.051146 -7.22539e-22)
(1.10477 -0.0604733 0)
(1.09897 -0.0764198 9.4808e-21)
(1.10479 0.0209619 3.21702e-22)
(1.10855 0.0126304 5.14307e-21)
(1.11102 0.00423537 8.03695e-21)
(1.11179 -0.00507873 -4.55571e-22)
(1.11149 -0.0139248 9.89925e-22)
(1.10956 -0.0242926 -1.49552e-20)
(1.10674 -0.0332357 1.45134e-20)
(1.10255 -0.0448663 -7.5391e-22)
(1.09765 -0.0532386 0)
(1.09187 -0.0668349 -1.92842e-20)
(1.10024 0.0178396 0)
(1.10354 0.0106362 5.10489e-21)
(1.10558 0.0033311 2.08498e-22)
(1.10611 -0.00470029 0)
(1.10551 -0.0124473 0)
(1.1035 -0.0213494 1.32551e-20)
(1.10053 -0.0292413 -1.20432e-20)
(1.09634 -0.0391867 -7.23329e-22)
(1.09143 -0.0466248 3.82922e-22)
(1.08566 -0.058211 1.0126e-20)
(1.09632 0.0150744 0)
(1.09923 0.00889259 -9.71953e-21)
(1.1009 0.00258503 -1.06482e-20)
(1.10119 -0.00429411 1.62906e-21)
(1.10036 -0.0110191 -1.04824e-21)
(1.09824 -0.018626 -8.90762e-22)
(1.09515 -0.0255176 1.69477e-21)
(1.09094 -0.0339934 1.10173e-20)
(1.08601 -0.0405311 1.07626e-21)
(1.08024 -0.0503695 -3.35543e-22)
(1.09298 0.0126334 0)
(1.09554 0.0073701 5.23855e-21)
(1.0969 0.00198121 -5.882e-22)
(1.09698 -0.00385642 5.83321e-22)
(1.09595 -0.00962613 0)
(1.09372 -0.0160756 0)
(1.09054 -0.0220196 0)
(1.08629 -0.0291927 -1.25113e-20)
(1.08134 -0.0348671 1.17626e-20)
(1.07556 -0.0431646 0)
(1.09014 0.0104465 0)
(1.09241 0.00603727 3.34844e-21)
(1.09352 0.00150302 4.35756e-21)
(1.09341 -0.00338484 5.72354e-21)
(1.09222 -0.00825866 -1.0931e-21)
(1.08989 -0.0136601 6.86938e-21)
(1.08662 -0.0187066 -6.23364e-21)
(1.08234 -0.0247078 0)
(1.07735 -0.0295556 6.39856e-22)
(1.07156 -0.0364767 -1.12693e-20)
(1.0878 0.00845997 -7.35603e-22)
(1.08981 0.00485928 -2.71285e-21)
(1.09071 0.00112999 -5.63211e-21)
(1.09045 -0.00288106 -4.02648e-21)
(1.08912 -0.00691026 0)
(1.0867 -0.0113496 -8.75234e-21)
(1.08335 -0.0155441 8.93878e-21)
(1.07903 -0.0204763 -8.51848e-22)
(1.07401 -0.024531 -5.82258e-21)
(1.06819 -0.0302062 1.63399e-20)
(1.08592 0.00667033 7.39385e-22)
(1.08772 0.00381678 -2.10516e-21)
(1.08844 0.000846134 1.90927e-21)
(1.08804 -0.00234727 -4.75203e-21)
(1.0866 -0.00557573 0)
(1.0841 -0.00912049 0)
(1.08069 -0.012502 8.8251e-22)
(1.07634 -0.0164456 -8.37204e-21)
(1.07127 -0.019736 -5.2309e-21)
(1.06543 -0.0242668 -5.47074e-21)
(1.08445 0.00503929 0)
(1.08608 0.00288625 3.46317e-21)
(1.08667 0.000634146 -1.27972e-21)
(1.08616 -0.00178918 4.22719e-21)
(1.08463 -0.00425382 1.13905e-21)
(1.08207 -0.00695682 -9.76003e-22)
(1.07861 -0.00955747 1.84546e-21)
(1.07422 -0.0125739 5.80602e-21)
(1.06912 -0.0151229 0)
(1.06324 -0.0185856 0)
(1.08338 0.00353041 0)
(1.08488 0.0020424 1.41445e-21)
(1.08535 0.000476875 -2.61133e-21)
(1.08477 -0.001214 0)
(1.08318 -0.00294571 -2.22826e-21)
(1.08057 -0.00484869 -9.84635e-22)
(1.07706 -0.00669535 -2.7653e-21)
(1.07265 -0.00883222 -8.1766e-22)
(1.06751 -0.0106592 4.21838e-22)
(1.0616 -0.0131113 3.59374e-22)
(1.08266 0.00212686 0)
(1.08407 0.0012818 -1.42127e-21)
(1.08448 0.000387262 -1.30033e-21)
(1.08384 -0.000590295 1.80958e-21)
(1.08221 -0.00160465 1.07452e-21)
(1.07957 -0.00273207 1.02515e-21)
(1.07604 -0.00384094 4.61996e-21)
(1.07159 -0.00513258 -3.39289e-21)
(1.06642 -0.00625552 7.93237e-22)
(1.06048 -0.00775037 0)
(1.08229 0.000692637 0)
(1.08366 0.000500594 6.98522e-22)
(1.08403 0.000283313 -6.70615e-22)
(1.08337 2.312e-05 6.37063e-22)
(1.08172 -0.000267831 0)
(1.07906 -0.000616857 -1.03035e-21)
(1.07551 -0.000981311 9.09035e-22)
(1.07104 -0.0014295 8.17992e-22)
(1.06584 -0.00184404 0)
(1.05987 -0.00240695 0)
(0.869399 0.258492 0)
(0.858026 0.285709 -4.49723e-20)
(0.851474 0.318811 0)
(0.846578 0.359008 -1.47339e-19)
(0.841517 0.406564 5.62572e-20)
(0.835106 0.462352 1.78965e-21)
(0.822694 0.52397 4.67117e-20)
(0.784871 0.57487 -6.54e-21)
(0.666962 0.55897 0)
(0.365428 0.326708 4.66416e-20)
(0.910064 0.258627 8.28531e-20)
(0.903684 0.289587 4.49708e-20)
(0.903738 0.321989 -4.22959e-20)
(0.904675 0.361602 4.9504e-20)
(0.905548 0.408799 -4.17977e-20)
(0.905797 0.463756 6.42755e-21)
(0.899797 0.523377 -4.88583e-20)
(0.864956 0.56967 -9.52305e-20)
(0.738764 0.546832 -2.50979e-20)
(0.402057 0.311819 -6.79995e-20)
(0.952575 0.254189 -3.65625e-20)
(0.951577 0.28533 3.7491e-20)
(0.956264 0.317031 4.22944e-20)
(0.961854 0.35608 4.30919e-20)
(0.968266 0.402493 4.36339e-20)
(0.974792 0.455816 4.36369e-20)
(0.974244 0.512164 7.44153e-21)
(0.940519 0.5521 4.04375e-20)
(0.803689 0.521675 1.47417e-20)
(0.431789 0.288642 -1.57369e-20)
(0.996443 0.246074 7.33499e-20)
(0.999751 0.27611 -3.74896e-20)
(1.00787 0.306457 0)
(1.01745 0.344026 0)
(1.02889 0.388547 0)