/*--------------------------------*- C++ -*----------------------------------*\
| =========                 |                                                 |
| \\      /  F ield         | OpenFOAM: The Open Source CFD Toolbox           |
|  \\    /   O peration     | Version:  4.1                                   |
|   \\  /    A nd           | Web:      www.OpenFOAM.org                      |
|    \\/     M anipulation  |                                                 |
\*---------------------------------------------------------------------------*/
FoamFile
{
    version     2.0;
    format      ascii;
    class       volScalarField;
    location    "0.4";
    object      p;
}
// * * * * * * * * * * * * * * * * * * * * * * * * * * * * * * * * * * * * * //

dimensions      [0 2 -2 0 0 0 0];

internalField   nonuniform List<scalar> 
2000
(
0.31355
0.315166
0.315036
0.313693
0.311375
0.308262
0.304526
0.300283
0.295547
0.290868
0.328494
0.33011
0.330179
0.329125
0.327152
0.324427
0.321118
0.317315
0.312952
0.308555
0.344507
0.346115
0.346383
0.345624
0.344002
0.341674
0.338795
0.335444
0.331548
0.32758
0.361506
0.363097
0.363561
0.363099
0.361835
0.359913
0.357478
0.3546
0.351216
0.347769
0.379401
0.380966
0.38162
0.381454
0.380552
0.379045
0.377065
0.374679
0.371835
0.368939
0.398097
0.399625
0.400461
0.400587
0.400049
0.398962
0.397449
0.395571
0.39329
0.390965
0.417491
0.41897
0.419978
0.420391
0.420214
0.419552
0.418514
0.417156
0.415457
0.413718
0.437475
0.438891
0.44006
0.440749
0.440931
0.440693
0.440134
0.439305
0.438203
0.437059
0.457932
0.45927
0.46059
0.461542
0.462074
0.462259
0.462179
0.461885
0.461387
0.460844
0.478739
0.479985
0.481448
0.482646
0.483516
0.484116
0.484513
0.484752
0.484863
0.484922
0.235431
0.23686
0.235539
0.232576
0.228419
0.223292
0.217382
0.210835
0.203763
0.196254
0.236888
0.238338
0.237034
0.234103
0.229982
0.224892
0.21902
0.212514
0.205488
0.198006
0.239814
0.24128
0.240024
0.237157
0.233105
0.228087
0.22229
0.215864
0.208928
0.201503
0.244192
0.245677
0.244495
0.241722
0.237772
0.232862
0.227177
0.220871
0.214069
0.20674
0.250007
0.251515
0.250429
0.24778
0.243965
0.239199
0.23366
0.227509
0.220883
0.213684
0.257241
0.258773
0.257805
0.255307
0.25166
0.247071
0.241715
0.235755
0.229346
0.222329
0.265866
0.267423
0.266592
0.264274
0.260825
0.256447
0.251307
0.245569
0.239408
0.232599
0.275854
0.277433
0.276755
0.274642
0.271423
0.267289
0.262403
0.256923
0.251052
0.244517
0.287165
0.288761
0.288252
0.286369
0.28341
0.279556
0.274953
0.26975
0.264146
0.257767
0.29975
0.30136
0.301034
0.299409
0.296752
0.293237
0.28901
0.284206
0.278972
0.27291
0.188421
0.180121
0.171513
0.162667
0.153612
0.144373
0.134973
0.125434
0.115773
0.106008
0.0961523
0.0862176
0.0762158
0.0661633
0.0560675
0.0459319
0.0357634
0.0255699
0.0153594
0.00513332
0.190148
0.181729
0.172996
0.164045
0.154892
0.14556
0.136071
0.126446
0.116702
0.106855
0.0969177
0.086903
0.0768207
0.0666828
0.0565063
0.0462903
0.036041
0.0257669
0.0154765
0.00517165
0.193592
0.184914
0.17593
0.166761
0.157404
0.147874
0.138195
0.128388
0.118467
0.108447
0.0983417
0.0881624
0.0779191
0.0676197
0.0572922
0.0469304
0.0365374
0.0261205
0.0156873
0.00524
0.198759
0.189681
0.180346
0.170877
0.161232
0.151429
0.141488
0.131426
0.121257
0.110994
0.100648
0.0902296
0.0797478
0.0692038
0.0586259
0.0480186
0.03738
0.0267184
0.0160426
0.00535572
0.205589
0.195922
0.186108
0.176208
0.166147
0.155947
0.145629
0.135205
0.124687
0.114086
0.103412
0.0926751
0.0818851
0.0710497
0.0601467
0.0492505
0.0383364
0.0274011
0.0164505
0.00548858
0.214116
0.203732
0.193404
0.183034
0.172518
0.161883
0.151143
0.140305
0.129379
0.118374
0.1073
0.096164
0.0849766
0.0737447
0.0624605
0.0511232
0.039785
0.0284284
0.0170603
0.00568789
0.224157
0.212783
0.20174
0.190683
0.179517
0.168284
0.156984
0.145619
0.134191
0.122705
0.111164
0.0995748
0.087942
0.0762731
0.0645691
0.0528122
0.0410791
0.0293588
0.0176213
0.00587209
0.235916
0.223677
0.212063
0.200426
0.188679
0.176862
0.164974
0.15302
0.141006
0.128937
0.116818
0.104653
0.0924478
0.0802086
0.067944
0.0556553
0.0432801
0.030894
0.0185349
0.00617374
0.248543
0.234799
0.222013
0.20936
0.196755
0.18419
0.17163
0.159056
0.14646
0.133836
0.121183
0.108501
0.095792
0.0830579
0.0703032
0.0575353
0.0447592
0.0319533
0.0191288
0.00636503
0.263604
0.250363
0.23698
0.223553
0.210108
0.196668
0.183228
0.169781
0.156322
0.142844
0.129344
0.11582
0.102272
0.0886999
0.0751057
0.0614905
0.0478565
0.0342114
0.0205495
0.00683897
0.273608
0.259185
0.244821
0.230497
0.216301
0.202208
0.188184
0.174206
0.160258
0.146327
0.132405
0.118484
0.104561
0.0906337
0.0767005
0.0627615
0.0488167
0.0348683
0.0209208
0.00697545
0.277516
0.262254
0.247391
0.232724
0.218248
0.203911
0.189671
0.175501
0.161382
0.147299
0.133242
0.1192
0.105169
0.0911445
0.0771226
0.0631018
0.0490808
0.035059
0.0210361
0.00701239
0.281014
0.265565
0.250408
0.235443
0.220684
0.206084
0.191603
0.177212
0.162891
0.148624
0.134397
0.120199
0.106024
0.0918654
0.0777182
0.0635793
0.049446
0.0353165
0.0211892
0.00706283
0.284266
0.268643
0.25324
0.238025
0.223021
0.208189
0.193488
0.178893
0.164382
0.149938
0.135547
0.121198
0.106881
0.0925898
0.078318
0.064061
0.049815
0.0355769
0.0213439
0.00711381
0.287136
0.271359
0.255762
0.24035
0.225149
0.210121
0.195233
0.180459
0.165779
0.151175
0.136635
0.122146
0.107697
0.0932816
0.0788922
0.0645232
0.0501697
0.0358276
0.021493
0.00716273
0.289682
0.27378
0.258032
0.242464
0.2271
0.211907
0.196856
0.181925
0.167094
0.152346
0.137669
0.12305
0.108478
0.0939458
0.0794448
0.0649687
0.0505121
0.0360698
0.0216371
0.00721011
0.291941
0.275939
0.260072
0.244379
0.22888
0.213548
0.198358
0.183288
0.168323
0.153446
0.138644
0.123906
0.10922
0.0945778
0.0799716
0.0653944
0.0508396
0.0363018
0.0217753
0.00725557
0.29394
0.277857
0.261897
0.246103
0.230494
0.215045
0.199734
0.184545
0.169461
0.154468
0.139554
0.124707
0.109916
0.0951726
0.0804686
0.0657964
0.0511494
0.0365214
0.0219061
0.0072987
0.295701
0.279555
0.263522
0.247647
0.231946
0.216399
0.200986
0.185693
0.170506
0.155411
0.140396
0.12545
0.110563
0.095727
0.0809326
0.0661725
0.0514396
0.0367272
0.0220289
0.00733922
0.297246
0.281051
0.26496
0.249021
0.233246
0.217616
0.202117
0.186735
0.171457
0.156271
0.141166
0.126132
0.111159
0.0962387
0.0813616
0.0665207
0.0517085
0.0369182
0.0221429
0.00737689
0.298595
0.282361
0.266226
0.250235
0.234399
0.218701
0.203129
0.18767
0.172313
0.157049
0.141865
0.126753
0.111703
0.0967057
0.081754
0.0668395
0.051955
0.0370935
0.0222476
0.00741152
0.299764
0.283499
0.26733
0.251299
0.235413
0.219659
0.204025
0.188501
0.173078
0.157744
0.142492
0.12731
0.112192
0.0971271
0.0821084
0.0671279
0.0521783
0.0372523
0.0223426
0.00744297
0.300768
0.284479
0.268285
0.252222
0.236296
0.220495
0.20481
0.189231
0.173751
0.158359
0.143046
0.127805
0.112626
0.0975019
0.0824241
0.0673851
0.0523775
0.0373941
0.0224274
0.00747111
0.301621
0.285313
0.269099
0.253012
0.237054
0.221215
0.205487
0.189863
0.174334
0.158892
0.143529
0.128236
0.113006
0.0978298
0.0827006
0.0676106
0.0525524
0.0375187
0.022502
0.00749585
0.302332
0.28601
0.269781
0.253676
0.237692
0.221823
0.206061
0.190399
0.17483
0.159347
0.143941
0.128604
0.11333
0.0981106
0.0829376
0.0678041
0.0527025
0.0376257
0.022566
0.00751714
0.302911
0.286578
0.270339
0.25422
0.238217
0.222323
0.206533
0.190841
0.17524
0.159723
0.144282
0.12891
0.1136
0.0983443
0.0831351
0.0679654
0.0528278
0.037715
0.0226195
0.00753493
0.303366
0.287025
0.270779
0.254649
0.238631
0.222719
0.206908
0.191193
0.175566
0.160022
0.144554
0.129154
0.113816
0.098531
0.083293
0.0680944
0.052928
0.0377865
0.0226624
0.00754918
0.303703
0.287356
0.271105
0.254967
0.238939
0.223013
0.207187
0.191454
0.175809
0.160246
0.144757
0.129337
0.113977
0.0986708
0.0834113
0.0681912
0.0530032
0.0378402
0.0226946
0.00755988
0.303925
0.287575
0.271321
0.255178
0.239143
0.223208
0.207372
0.191628
0.175971
0.160395
0.144893
0.129458
0.114084
0.098764
0.0834902
0.0682557
0.0530534
0.037876
0.022716
0.00756704
0.304048
0.287688
0.27143
0.255284
0.239244
0.223306
0.207464
0.191715
0.176052
0.160469
0.14496
0.129519
0.114138
0.0988105
0.0835296
0.0682879
0.0530784
0.0378938
0.0227267
0.00757072
0.485124
0.460935
0.437024
0.413542
0.390632
0.368429
0.347063
0.326664
0.307442
0.28922
0.485664
0.462215
0.439025
0.416236
0.393978
0.372371
0.351521
0.33152
0.312427
0.293632
0.486072
0.463071
0.44031
0.417919
0.396022
0.374734
0.35416
0.334413
0.31565
0.297058
0.486438
0.463885
0.441558
0.419581
0.398072
0.377139
0.356875
0.337379
0.318803
0.30036
0.486762
0.464599
0.442648
0.421026
0.399844
0.379205
0.359197
0.339917
0.32152
0.303267
0.48705
0.465242
0.443633
0.422335
0.401453
0.381083
0.36131
0.342221
0.323959
0.305874
0.487307
0.465819
0.444519
0.423512
0.402896
0.382763
0.363194
0.344271
0.32612
0.308187
0.487536
0.466341
0.445322
0.424578
0.404203
0.384282
0.364892
0.346111
0.328046
0.310238
0.487742
0.466814
0.44605
0.425545
0.405386
0.385654
0.36642
0.347759
0.32976
0.31205
0.487928
0.467243
0.446714
0.426426
0.406462
0.386897
0.367798
0.349237
0.331284
0.313646
0.488095
0.467635
0.44732
0.427229
0.407441
0.388025
0.369043
0.350561
0.332639
0.315048
0.488246
0.467993
0.447874
0.427964
0.408334
0.389049
0.370166
0.351746
0.333839
0.316272
0.488382
0.468319
0.448381
0.428636
0.409149
0.389979
0.37118
0.352806
0.334899
0.317334
0.488504
0.468618
0.448846
0.429251
0.409893
0.390824
0.372094
0.353751
0.33583
0.318248
0.488614
0.468891
0.449272
0.429814
0.41057
0.391589
0.372915
0.35459
0.336643
0.319023
0.488712
0.46914
0.449662
0.430329
0.411189
0.392283
0.373652
0.355332
0.337347
0.31967
0.4888
0.469365
0.450016
0.430796
0.411746
0.392904
0.374304
0.355977
0.337943
0.320193
0.488878
0.469575
0.450346
0.431231
0.412263
0.393475
0.374894
0.356548
0.338451
0.320607
0.488941
0.469745
0.450615
0.431583
0.412679
0.39393
0.37536
0.35699
0.338832
0.320894
0.489013
0.469959
0.450957
0.432031
0.413203
0.394492
0.375915
0.357487
0.339218
0.321123
0.706508
0.702007
0.697058
0.692463
0.688252
0.68447
0.681206
0.678563
0.676855
0.677176
0.68851
0.68399
0.679218
0.674931
0.671012
0.667459
0.664351
0.661774
0.660026
0.660167
0.669028
0.664758
0.660337
0.656385
0.652756
0.649439
0.646495
0.643993
0.64221
0.642169
0.648298
0.644445
0.640458
0.636879
0.633571
0.630514
0.627754
0.625342
0.623536
0.623315
0.626611
0.623224
0.619712
0.616538
0.613577
0.610806
0.608251
0.605949
0.604133
0.603739
0.604121
0.601232
0.598229
0.595491
0.592904
0.590442
0.588116
0.585944
0.584135
0.583575
0.580974
0.57861
0.576147
0.573871
0.571684
0.569555
0.56748
0.56546
0.563675
0.562962
0.557322
0.555509
0.55361
0.551819
0.550054
0.548281
0.546479
0.544635
0.542891
0.542037
0.533323
0.53208
0.530765
0.529478
0.528155
0.526757
0.525249
0.523604
0.521921
0.520933
0.509136
0.508479
0.507762
0.506994
0.506129
0.505123
0.503928
0.502505
0.500913
0.499771
0.806628
0.799374
0.792583
0.786343
0.780755
0.775951
0.772084
0.769326
0.768063
0.769429
0.804784
0.797534
0.790777
0.784563
0.778994
0.774202
0.770343
0.767582
0.766298
0.767658
0.801101
0.793865
0.787173
0.78101
0.775478
0.770712
0.766864
0.764098
0.762788
0.764108
0.795581
0.788383
0.781791
0.775704
0.770228
0.765502
0.761672
0.758899
0.757553
0.75881
0.78826
0.78112
0.77466
0.768673
0.763271
0.758599
0.754797
0.752017
0.750625
0.751798
0.779138
0.772102
0.765811
0.759949
0.754643
0.750042
0.746277
0.743492
0.742048
0.743119
0.768306
0.761393
0.755294
0.749577
0.744388
0.739878
0.736165
0.73338
0.73188
0.732829
0.755697
0.748985
0.743128
0.737594
0.732555
0.728163
0.72452
0.721746
0.720187
0.720998
0.741638
0.735044
0.729418
0.724077
0.719216
0.714968
0.711418
0.708668
0.707053
0.707712
0.725408
0.719337
0.714047
0.709008
0.704413
0.700367
0.696943
0.694237
0.692572
0.693066
0.994901
0.984744
0.974608
0.964492
0.954404
0.944352
0.934345
0.924388
0.914484
0.904659
0.894924
0.885291
0.875775
0.866393
0.857165
0.848113
0.839261
0.830638
0.822271
0.814218
0.994862
0.984625
0.974408
0.964209
0.954037
0.943901
0.933809
0.923764
0.913782
0.903877
0.894059
0.884341
0.874739
0.865267
0.855945
0.846794
0.837839
0.829103
0.820609
0.812424
0.994792
0.98441
0.974046
0.963702
0.953385
0.943101
0.932855
0.922646
0.912499
0.902425
0.892434
0.882539
0.872752
0.86309
0.85357
0.844211
0.835037
0.82607
0.817314
0.808845
0.994675
0.98405
0.97344
0.962847
0.952279
0.941744
0.931246
0.920784
0.910395
0.900077
0.889837
0.879689
0.869643
0.859715
0.849918
0.840269
0.830788
0.821496
0.812374
0.803467
0.994539
0.983632
0.972742
0.961869
0.951018
0.940191
0.929373
0.918612
0.907908
0.897262
0.886686
0.87619
0.865784
0.85548
0.845289
0.835223
0.825297
0.815537
0.805907
0.796353
0.994338
0.983019
0.971708
0.960411
0.949135
0.937878
0.926638
0.915477
0.904367
0.893312
0.882322
0.871406
0.860573
0.849832
0.839191
0.82866
0.818245
0.807966
0.797788
0.787449
0.994148
0.982439
0.970743
0.959065
0.947388
0.93568
0.924052
0.912458
0.900897
0.88938
0.877914
0.866505
0.855156
0.84387
0.832648
0.82149
0.81039
0.799361
0.788411
0.776971
0.993848
0.981528
0.969214
0.956898
0.944553
0.932303
0.920093
0.907909
0.89576
0.883652
0.871588
0.859573
0.847608
0.835697
0.823842
0.812045
0.800299
0.788613
0.777032
0.764624
0.993645
0.980906
0.968126
0.955332
0.942611
0.929896
0.917192
0.904506
0.891843
0.879206
0.866595
0.854009
0.841446
0.828897
0.816348
0.803778
0.791144
0.778393
0.765578
0.751416
0.993179
0.979503
0.965858
0.952253
0.938658
0.92508
0.911523
0.897987
0.884472
0.870976
0.857498
0.844033
0.830572
0.817105
0.803616
0.790089
0.776505
0.762858
0.74919
0.7351
0.99304
0.979122
0.965201
0.951278
0.937359
0.923444
0.909532
0.895623
0.881712
0.867797
0.85387
0.83992
0.825935
0.811895
0.797774
0.78354
0.769144
0.754526
0.739663
0.724422
0.992996
0.978987
0.964979
0.950972
0.936964
0.922954
0.90894
0.894919
0.880884
0.866831
0.852749
0.838628
0.82445
0.810196
0.795839
0.781342
0.766656
0.751706
0.736429
0.720703
0.992942
0.978824
0.964703
0.950579
0.93645
0.922312
0.908162
0.893995
0.879805
0.865583
0.85132
0.837001
0.82261
0.808125
0.793519
0.778757
0.763792
0.748562
0.733033
0.717189
0.992887
0.978657
0.964423
0.950182
0.93593
0.921664
0.907379
0.893068
0.878725
0.864339
0.8499
0.835394
0.820802
0.806103
0.791271
0.776274
0.761072
0.745612
0.72988
0.713906
0.992834
0.978496
0.964152
0.949798
0.935431
0.921043
0.906631
0.892187
0.877702
0.863167
0.848569
0.833894
0.819125
0.804242
0.789219
0.774029
0.758638
0.743003
0.727116
0.711025
0.992782
0.978341
0.963891
0.949429
0.93495
0.920448
0.905916
0.891346
0.87673
0.862057
0.847315
0.832489
0.817565
0.802521
0.787337
0.771987
0.756443
0.740671
0.724664
0.708476
0.992733
0.978192
0.963641
0.949077
0.934493
0.919882
0.905237
0.890551
0.875813
0.861014
0.846142
0.831182
0.81612
0.800938
0.785616
0.770133
0.754465
0.738583
0.722485
0.706221
0.992687
0.978051
0.963405
0.948744
0.934061
0.919349
0.9046
0.889806
0.874958
0.860045
0.845056
0.829977
0.814795
0.799493
0.784054
0.768461
0.752691
0.736723
0.720554
0.704233
0.992643
0.977919
0.963184
0.948433
0.933658
0.918853
0.904008
0.889116
0.874168
0.859152
0.844059
0.828875
0.813589
0.798184
0.782647
0.766961
0.75111
0.735073
0.71885
0.702485
0.992603
0.977797
0.96298
0.948145
0.933286
0.918395
0.903463
0.888482
0.873444
0.858337
0.843151
0.827876
0.812499
0.797007
0.781387
0.765625
0.749707
0.733617
0.717353
0.700956
0.992566
0.977685
0.962792
0.947882
0.932946
0.917977
0.902967
0.887906
0.872787
0.857599
0.842333
0.826978
0.811523
0.795957
0.780267
0.764442
0.74847
0.732338
0.716045
0.699625
0.992532
0.977584
0.962623
0.947644
0.932639
0.917601
0.90252
0.887389
0.872198
0.85694
0.841604
0.82618
0.810658
0.795029
0.779281
0.763405
0.74739
0.731225
0.71491
0.698474
0.992502
0.977493
0.962472
0.947432
0.932366
0.917266
0.902123
0.88693
0.871678
0.856358
0.840961
0.825478
0.809901
0.794218
0.778422
0.762504
0.746455
0.730265
0.713934
0.697488
0.992476
0.977414
0.962339
0.947246
0.932127
0.916973
0.901777
0.88653
0.871225
0.855852
0.840404
0.824871
0.809246
0.79352
0.777685
0.761732
0.745656
0.729448
0.713106
0.696652
0.992453
0.977346
0.962226
0.947087
0.931922
0.916722
0.90148
0.886188
0.870838
0.855421
0.83993
0.824357
0.808693
0.792931
0.777063
0.761084
0.744986
0.728764
0.712415
0.695956
0.992434
0.977289
0.962131
0.946954
0.931751
0.916514
0.901234
0.885905
0.870517
0.855065
0.839539
0.823931
0.808236
0.792445
0.776553
0.760552
0.744438
0.728205
0.711852
0.69539
0.992419
0.977243
0.962055
0.946848
0.931615
0.916347
0.901038
0.885679
0.870262
0.854781
0.839227
0.823594
0.807874
0.792061
0.776149
0.760132
0.744006
0.727766
0.711409
0.694947
0.992408
0.977209
0.961998
0.946769
0.931513
0.916223
0.900891
0.88551
0.870071
0.854569
0.838995
0.823342
0.807605
0.791776
0.775849
0.75982
0.743685
0.72744
0.711082
0.694619
0.9924
0.977187
0.961961
0.946716
0.931445
0.91614
0.900793
0.885397
0.869944
0.854428
0.838841
0.823176
0.807426
0.791586
0.775651
0.759614
0.743474
0.727225
0.710866
0.694404
0.992396
0.977175
0.961942
0.94669
0.931411
0.916098
0.900744
0.885341
0.869881
0.854358
0.838764
0.823092
0.807337
0.791492
0.775552
0.759512
0.743368
0.727117
0.710756
0.694287
0.708046
0.689499
0.669909
0.6491
0.627326
0.604755
0.581529
0.557798
0.533714
0.509437
0.704041
0.684619
0.665086
0.644734
0.623529
0.601607
0.579082
0.556082
0.532748
0.509225
0.700661
0.681504
0.662353
0.642327
0.621439
0.599866
0.577725
0.555141
0.532246
0.509176
0.697394
0.678417
0.659471
0.639732
0.61919
0.598008
0.576288
0.554144
0.531701
0.509088
0.694517
0.675779
0.657048
0.637558
0.617301
0.596436
0.575063
0.553289
0.531232
0.509015
0.691937
0.67341
0.654845
0.635566
0.615567
0.594993
0.573938
0.552503
0.530799
0.508942
0.689654
0.671319
0.652893
0.633797
0.614021
0.593701
0.572926
0.551793
0.530405
0.508872
0.687635
0.669461
0.651145
0.632201
0.61262
0.592526
0.572004
0.551143
0.530042
0.508805
0.685858
0.667814
0.649583
0.630766
0.611354
0.591459
0.571163
0.550548
0.529708
0.50874
0.684298
0.666354
0.648185
0.629471
0.610205
0.590486
0.570392
0.550001
0.529399
0.508677
0.682933
0.665062
0.646934
0.628303
0.60916
0.589597
0.569684
0.549495
0.529111
0.508616
0.681745
0.663919
0.645815
0.627247
0.608209
0.588783
0.569033
0.549028
0.528843
0.508556
0.680717
0.662912
0.644814
0.626292
0.607342
0.588035
0.568432
0.548595
0.528593
0.508498
0.679835
0.662028
0.643922
0.62543
0.606552
0.587349
0.567876
0.548192
0.528358
0.50844
0.679088
0.661257
0.643128
0.624652
0.605831
0.586718
0.567363
0.547817
0.528138
0.508383
0.678466
0.66059
0.642425
0.623951
0.605174
0.586138
0.566887
0.547468
0.52793
0.508327
0.677962
0.660022
0.64181
0.623327
0.604582
0.58561
0.566451
0.547145
0.527737
0.508272
0.677565
0.659537
0.641263
0.622758
0.604032
0.585113
0.566036
0.546835
0.527549
0.508216
0.677288
0.65917
0.640835
0.622306
0.60359
0.584712
0.565699
0.546582
0.527394
0.508169
0.677071
0.658797
0.640348
0.621756
0.60303
0.584188
0.565251
0.54624
0.52718
0.508096
)
;

boundaryField
{
    bottom
    {
        type            symmetryPlane;
    }
    right
    {
        type            fixedValue;
        value           uniform 0;
    }
    top
    {
        type            symmetryPlane;
    }
    left
    {
        type            fixedValue;
        value           uniform 1;
    }
    cylinder
    {
        type            zeroGradient;
    }
    defaultFaces
    {
        type            empty;
    }
}


// ************************************************************************* //
