/*--------------------------------*- C++ -*----------------------------------*\
| =========                 |                                                 |
| \\      /  F ield         | OpenFOAM: The Open Source CFD Toolbox           |
|  \\    /   O peration     | Version:  4.1                                   |
|   \\  /    A nd           | Web:      www.OpenFOAM.org                      |
|    \\/     M anipulation  |                                                 |
\*---------------------------------------------------------------------------*/
FoamFile
{
    version     2.0;
    format      ascii;
    class       volVectorField;
    location    "0.4";
    object      U;
}
// * * * * * * * * * * * * * * * * * * * * * * * * * * * * * * * * * * * * * //

dimensions      [0 1 -1 0 0 0 0];

internalField   nonuniform List<vector> 
2000
(
(0.0456526 -0.0388244 -3.78079e-20)
(0.0818925 -0.0635187 0)
(0.0948181 -0.0648184 -6.5101e-20)
(0.0984069 -0.0590702 -3.04094e-20)
(0.0990098 -0.0522375 5.62205e-20)
(0.0988704 -0.0460962 7.76257e-20)
(0.0986242 -0.0409807 -2.36146e-20)
(0.0983216 -0.0368085 0)
(0.097553 -0.0336739 2.14581e-20)
(0.0964545 -0.0314543 0)
(0.0518347 -0.0379581 1.84171e-20)
(0.0919181 -0.062011 -1.82581e-20)
(0.104969 -0.0632616 6.75941e-20)
(0.107578 -0.0576593 9.40536e-20)
(0.107018 -0.0510016 1.45163e-21)
(0.105784 -0.0449963 -2.55713e-20)
(0.104558 -0.0399256 2.6757e-20)
(0.103432 -0.0356943 2.42832e-20)
(0.10205 -0.0325515 -2.14582e-20)
(0.100519 -0.0304217 -4.13228e-20)
(0.0578134 -0.0361393 -2.03335e-20)
(0.101577 -0.0589408 1.9047e-20)
(0.114733 -0.0601004 -3.45733e-20)
(0.116402 -0.0547684 1.61635e-21)
(0.114752 -0.0484316 -2.98609e-20)
(0.112528 -0.0426964 -2.78242e-20)
(0.110465 -0.0378155 -2.59724e-20)
(0.108687 -0.0337065 -2.42833e-20)
(0.106917 -0.0306775 -2.40772e-20)
(0.105165 -0.0287069 2.26488e-20)
(0.0634451 -0.0334128 -4.61441e-23)
(0.110637 -0.0543902 1.99842e-20)
(0.123878 -0.0554277 0)
(0.124669 -0.0504966 -3.27861e-20)
(0.122013 -0.044639 3.22544e-20)
(0.118888 -0.0393291 0)
(0.116072 -0.0347952 0)
(0.113686 -0.0309714 0)
(0.111505 -0.0281743 2.40772e-20)
(0.109507 -0.0263652 -4.52094e-20)
(0.0685943 -0.0298449 -4.52793e-20)
(0.118877 -0.0484769 -5.58452e-22)
(0.132179 -0.04937 -1.99828e-20)
(0.13217 -0.0449653 -1.682e-20)
(0.128608 -0.0397368 -1.73653e-20)
(0.124678 -0.0349939 -1.62495e-20)
(0.121185 -0.0309379 0)
(0.118242 -0.0275156 -1.43271e-20)
(0.11566 -0.0250237 6.57387e-20)
(0.113395 -0.0233947 -8.64391e-20)
(0.0731356 -0.0255214 6.98219e-20)
(0.126098 -0.0413501 -4.71828e-22)
(0.139433 -0.0420848 4.04503e-20)
(0.13872 -0.0383217 -3.76594e-20)
(0.134369 -0.033857 5.29157e-20)
(0.12974 -0.0298062 -1.71274e-20)
(0.12566 -0.0263393 0)
(0.122231 -0.0234138 1.43272e-20)
(0.119297 -0.0212897 -1.34909e-20)
(0.116792 -0.0198783 -5.31522e-20)
(0.0769574 -0.0205462 0)
(0.132122 -0.0331872 0)
(0.145463 -0.0337572 2.14721e-20)
(0.144155 -0.0307358 -1.99911e-20)
(0.139148 -0.0271505 1.86818e-20)
(0.133942 -0.0238972 -1.75397e-20)
(0.129378 -0.0211116 -3.28907e-20)
(0.125547 -0.0187611 3.10886e-20)
(0.122323 -0.0170581 2.92412e-20)
(0.119618 -0.0159051 -1.43076e-20)
(0.0799643 -0.0150387 -1.31819e-20)
(0.136801 -0.0241903 0)
(0.15012 -0.0245956 1.09991e-20)
(0.148341 -0.022398 -4.19271e-20)
(0.142826 -0.019785 2.96583e-20)
(0.137176 -0.0174134 0)
(0.132241 -0.0153821 0)
(0.128102 -0.0136685 0)
(0.124659 -0.0124291 3.08664e-20)
(0.1218 -0.0115716 -2.93362e-20)
(0.0820808 -0.00913167 6.43069e-21)
(0.140019 -0.0145814 -1.52198e-22)
(0.153291 -0.0148277 1.15063e-20)
(0.151174 -0.0135141 -5.61528e-21)
(0.145309 -0.0119424 -5.02177e-21)
(0.139359 -0.0105138 -9.65294e-21)
(0.134175 -0.00928965 0)
(0.12983 -0.0082579 4.40208e-21)
(0.126241 -0.00751216 2.04326e-20)
(0.123277 -0.00697966 -1.54545e-20)
(0.0832552 -0.00296709 0)
(0.141698 -0.00459631 6.47632e-21)
(0.154897 -0.00469445 0)
(0.152584 -0.0043018 2.74234e-21)
(0.146535 -0.00381468 2.56412e-21)
(0.140435 -0.0033664 5.05256e-21)
(0.135129 -0.00298123 0)
(0.130685 -0.00265782 -4.4021e-21)
(0.127026 -0.00242276 -4.17122e-21)
(0.12401 -0.00223496 -4.06382e-21)
(0.00351514 -0.00298151 0)
(0.0125487 -0.00492481 3.30132e-21)
(0.0237463 -0.00502893 0)
(0.0333294 -0.00457098 4.16929e-21)
(0.0411149 -0.00401773 1.27344e-21)
(0.0474573 -0.00350744 -2.31101e-21)
(0.0526536 -0.00306795 2.17637e-21)
(0.0569419 -0.00269572 -1.97516e-21)
(0.0605082 -0.00237898 -4.05298e-23)
(0.0634882 -0.00209978 -1.68054e-21)
(0.00444939 -0.00888395 1.05158e-20)
(0.0141096 -0.0146564 -6.55308e-21)
(0.0253653 -0.0149706 6.09453e-21)
(0.0348159 -0.0136081 -2.77535e-21)
(0.0424409 -0.0119599 -1.27602e-20)
(0.0486369 -0.0104398 4.75073e-21)
(0.0537066 -0.00913065 0)
(0.0578903 -0.00802141 1.96859e-21)
(0.0613857 -0.00707593 1.80395e-21)
(0.0642823 -0.00624531 0)
(0.00630967 -0.0145875 -7.01786e-21)
(0.0172026 -0.0240408 0)
(0.0285604 -0.0245589 -1.82877e-20)
(0.0377554 -0.0223228 2.25398e-20)
(0.0450652 -0.0196163 -5.31148e-21)
(0.0509716 -0.0171202 0)
(0.0557915 -0.0149704 0)
(0.0597682 -0.0131478 0)
(0.0631227 -0.0115902 -1.44755e-20)
(0.0658702 -0.0102328 1.37581e-20)
(0.00905416 -0.0199516 0)
(0.0217578 -0.0328603 1.35195e-20)
(0.0332592 -0.0335624 -2.49485e-20)
(0.0420796 -0.0305024 1.1567e-20)
(0.0489267 -0.0267997 -1.04707e-20)
(0.0544086 -0.0233841 2.90493e-20)
(0.0588621 -0.0204408 -4.71855e-22)
(0.0625312 -0.017942 -1.66698e-20)
(0.0656684 -0.0157944 -1.48415e-20)
(0.068203 -0.0139328 2.1153e-20)
(0.0126221 -0.0248525 -1.45528e-20)
(0.0276718 -0.0409052 2.79053e-20)
(0.0393541 -0.0417675 2.55271e-22)
(0.0476875 -0.0379533 -1.15232e-22)
(0.0539368 -0.0333407 -1.04734e-20)
(0.0588728 -0.0290836 3.03405e-20)
(0.0628581 -0.0254108 0)
(0.0661339 -0.0222854 8.61676e-21)
(0.0689948 -0.0195764 -7.93833e-21)
(0.0713003 -0.0172347 2.83699e-20)
(0.0169346 -0.0291735 2.57389e-22)
(0.0348078 -0.04798 -2.8305e-20)
(0.0467005 -0.0489763 -1.29856e-20)
(0.0544447 -0.0444987 -1.27522e-20)
(0.0599768 -0.0390874 -1.10255e-20)
(0.0642629 -0.0340885 -1.0156e-20)
(0.0676943 -0.0297666 0)
(0.0705001 -0.0260732 -8.61677e-21)
(0.0730107 -0.0228286 -2.39214e-20)
(0.0750291 -0.0200049 7.72903e-21)
(0.0218943 -0.0328075 4.51358e-23)
(0.0429969 -0.0539085 -1.47076e-20)
(0.0551191 -0.0550129 0)
(0.0621839 -0.0499848 2.40643e-20)
(0.0668991 -0.0439124 -2.33641e-20)
(0.0704566 -0.0382963 0)
(0.0732827 -0.0334243 0)
(0.0755892 -0.0292297 0)
(0.0777453 -0.0254652 1.72954e-20)
(0.0795471 -0.0221255 2.98813e-20)
(0.0273855 -0.0356598 1.62899e-20)
(0.0520385 -0.058538 -1.52592e-20)
(0.064396 -0.0597275 -2.88725e-20)
(0.0707024 -0.0542851 -1.05121e-21)
(0.0745196 -0.0477201 -2.46852e-20)
(0.0772914 -0.0416459 -2.28424e-20)
(0.0794846 -0.036357 -2.11486e-20)
(0.0812765 -0.0317477 -1.95924e-20)
(0.0830191 -0.0274567 -1.72954e-20)
(0.0844525 -0.0234556 1.60009e-20)
(0.033275 -0.0376508 5.1518e-20)
(0.0617032 -0.0617423 1.59453e-20)
(0.0742851 -0.0629972 5.88643e-20)
(0.0797618 -0.0572986 2.72205e-20)
(0.0826128 -0.050445 -1.12693e-21)
(0.0845644 -0.0441288 2.20807e-20)
(0.086156 -0.038642 -2.28728e-20)
(0.0875617 -0.033809 1.95925e-20)
(0.0891271 -0.0290642 -1.91524e-20)
(0.0906016 -0.0242466 3.39519e-20)
(0.0394153 -0.0387186 -3.45615e-20)
(0.0717395 -0.0634238 0)
(0.0845136 -0.0647208 -3.01132e-20)
(0.0890805 -0.0589304 4.95493e-22)
(0.0908622 -0.0520086 -7.13207e-22)
(0.091864 -0.0457107 -2.47198e-20)
(0.0926979 -0.0403495 6.80302e-20)
(0.0935079 -0.0357127 0)
(0.0944541 -0.0311063 1.91524e-20)
(0.0954007 -0.0258392 0)
(0.0660271 -0.00186638 0)
(0.0685111 -0.00162626 1.44986e-21)
(0.0706939 -0.00140239 -2.8415e-21)
(0.0725753 -0.00121349 1.22132e-21)
(0.0742179 -0.00105421 0)
(0.0756584 -0.000918194 -1.17452e-21)
(0.0769207 -0.00080146 1.18034e-21)
(0.0780257 -0.000700741 0)
(0.0789913 -0.00061321 0)
(0.0798324 -0.000536477 -1.14129e-22)
(0.0805605 -0.000468459 0)
(0.0811828 -0.000407208 0)
(0.0816998 -0.000350134 0)
(0.0821259 -0.000292716 0)
(0.0824897 -0.000239632 1.12186e-22)
(0.0828025 -0.000190645 -1.12767e-22)
(0.0830626 -0.000145092 0)
(0.0832701 -0.00010304 2.28587e-23)
(0.0834308 -6.58719e-05 -2.2979e-23)
(0.083547 -3.90563e-05 0)
(0.0664964 -0.00557253 0)
(0.0689457 -0.00483159 -3.77295e-22)
(0.071084 -0.00415022 0)
(0.0729061 -0.00357849 -5.12896e-21)
(0.074501 -0.00309346 4.99697e-21)
(0.0759042 -0.00267706 -3.07484e-22)
(0.0771359 -0.00231829 2.21068e-21)
(0.0782159 -0.00200767 -4.5474e-21)
(0.0791616 -0.00173705 3.71673e-21)
(0.079987 -0.00149955 -2.02509e-21)
(0.0807036 -0.00128933 -1.57691e-21)
(0.0813195 -0.00110126 2.8068e-21)
(0.081839 -0.000929686 -1.41775e-21)
(0.0822656 -0.000767351 -6.81959e-22)
(0.0826217 -0.000621895 5.38439e-22)
(0.0829274 -0.000492091 -1.02357e-22)
(0.0831814 -0.000374265 -8.00735e-23)
(0.0833829 -0.00026661 -9.14255e-23)
(0.0835376 -0.000171535 9.18682e-23)
(0.0836485 -0.000103173 -1.18281e-23)
(0.0674737 -0.00921865 4.02754e-22)
(0.0698582 -0.00795004 3.77949e-22)
(0.0718898 -0.00682453 3.68701e-22)
(0.0735915 -0.00589683 0)
(0.0750938 -0.00510999 5.75176e-21)
(0.0764226 -0.00443636 -4.49309e-21)
(0.0775919 -0.00385781 0)
(0.0786203 -0.00335767 5.43077e-22)
(0.0795235 -0.0029221 2.49136e-22)
(0.0803142 -0.00253971 -3.05647e-21)
(0.0810024 -0.00220082 3.46563e-22)
(0.0815962 -0.00189669 3.57795e-21)
(0.0820996 -0.00161749 1.6971e-22)
(0.0825076 -0.00135224 1.4514e-22)
(0.0828391 -0.00110313 1.25777e-22)
(0.0831238 -0.000875795 -2.62142e-22)
(0.083364 -0.000666604 2.51297e-22)
(0.0835568 -0.000473915 2.7524e-22)
(0.0837047 -0.000302852 5.80613e-23)
(0.083808 -0.000178437 9.77994e-26)
(0.0689453 -0.0127092 1.23978e-20)
(0.0712197 -0.0108543 -6.0903e-22)
(0.0730421 -0.00928385 -9.9313e-22)
(0.0745514 -0.00799822 -1.16844e-20)
(0.0759131 -0.00689926 -1.01502e-21)
(0.0771297 -0.00595874 -3.13002e-22)
(0.0782084 -0.00515263 8.55672e-21)
(0.0791647 -0.00445765 -5.20669e-21)
(0.0800107 -0.00385487 -4.26491e-21)
(0.0807566 -0.00332854 3.82679e-21)
(0.0814114 -0.00286512 -3.52536e-22)
(0.0819848 -0.00245261 -3.8294e-21)
(0.0824862 -0.00207963 -1.68297e-22)
(0.0829014 -0.00173539 -1.39505e-21)
(0.0832268 -0.00140177 9.73523e-22)
(0.0834933 -0.0011054 7.35685e-22)
(0.083716 -0.000839185 -6.54146e-22)
(0.0838919 -0.00059643 0)
(0.0840228 -0.000381125 -1.05083e-22)
(0.0841101 -0.000224317 -1.17075e-23)
(0.0710082 -0.0160019 -2.77692e-20)
(0.0731408 -0.0135561 1.1855e-20)
(0.0746473 -0.0116264 -1.27049e-20)
(0.0759043 -0.0100542 0)
(0.0770768 -0.00870546 6.82721e-22)
(0.0781332 -0.00755418 1.00775e-20)
(0.0790783 -0.0065659 -9.35716e-23)
(0.0799244 -0.00571044 -7.02023e-22)
(0.0806798 -0.00496508 -8.7259e-21)
(0.0813515 -0.00431133 -4.7309e-22)
(0.0819455 -0.00373364 0)
(0.0824676 -0.00321863 3.85645e-22)
(0.0829248 -0.00275499 0)
(0.0833227 -0.00232967 2.96637e-22)
(0.0836235 -0.00191523 0)
(0.0838412 -0.00151644 0)
(0.0840313 -0.00115136 -1.60885e-22)
(0.0841898 -0.000816081 1.86635e-22)
(0.0843095 -0.000516846 -1.64424e-22)
(0.084385 -0.000296183 4.74474e-23)
(0.0735123 -0.0189397 0)
(0.0754109 -0.0158196 8.33869e-22)
(0.076458 -0.0135208 2.51269e-20)
(0.0774005 -0.0116092 -2.43459e-20)
(0.0783455 -0.00996056 7.34389e-22)
(0.0792222 -0.00856232 0)
(0.0800285 -0.00737089 9.72435e-21)
(0.0807657 -0.00634991 -1.81246e-20)
(0.081434 -0.00547053 9.54609e-21)
(0.0820359 -0.00470829 5.02636e-22)
(0.0825747 -0.00404257 4.55424e-22)
(0.0830548 -0.00345586 4.07992e-22)
(0.0834859 -0.00293298 0)
(0.0838831 -0.00246111 -1.95788e-21)
(0.084217 -0.00203016 4.42791e-21)
(0.0844474 -0.00159458 -1.89282e-21)
(0.0846091 -0.00119689 1.68414e-22)
(0.0847382 -0.000844792 1.2033e-22)
(0.084829 -0.000534339 -4.73631e-23)
(0.0848787 -0.00030542 4.79422e-23)
(0.0767511 -0.0215187 -3.06993e-20)
(0.0783854 -0.0179124 0)
(0.078874 -0.0155129 8.67624e-22)
(0.0794318 -0.0134696 -1.60016e-21)
(0.0800545 -0.01169 -1.50369e-21)
(0.0806545 -0.01016 -7.19105e-22)
(0.081234 -0.00883067 -6.69372e-22)
(0.0817873 -0.00767043 8.69297e-21)
(0.0823081 -0.0066549 -1.03819e-20)
(0.0827924 -0.00576267 -8.7467e-21)
(0.0832373 -0.00497498 7.26224e-21)
(0.0836411 -0.00427528 -8.22694e-22)
(0.0840039 -0.00364926 2.69632e-21)
(0.0843333 -0.00308682 -6.90191e-22)
(0.0846412 -0.00258256 -2.83316e-21)
(0.0848625 -0.00210511 -2.21194e-22)
(0.0849781 -0.00160668 2.37177e-22)
(0.0850663 -0.00112889 -3.0787e-22)
(0.0851405 -0.000705967 -4.54062e-22)
(0.085179 -0.000388526 -2.46331e-23)
(0.0800943 -0.0233092 0)
(0.0812356 -0.018997 2.95413e-20)
(0.0811054 -0.0162166 -3.02827e-20)
(0.0813042 -0.0137991 8.21516e-22)
(0.0816705 -0.0117478 1.57589e-21)
(0.0820765 -0.0100323 7.18492e-22)
(0.082502 -0.00858125 1.36479e-21)
(0.0829266 -0.00734548 0)
(0.083338 -0.00628621 5.65248e-22)
(0.0837296 -0.00537244 5.14569e-22)
(0.0840974 -0.00457934 4.84509e-22)
(0.0844388 -0.00388653 8.45932e-22)
(0.0847528 -0.00327683 0)
(0.0850416 -0.0027359 0)
(0.0853157 -0.00225562 2.65041e-22)
(0.0855885 -0.00183441 2.01769e-21)
(0.0857871 -0.00142173 -1.40219e-21)
(0.0858648 -0.000998233 1.24063e-22)
(0.0858896 -0.000604827 2.42259e-22)
(0.0858945 -0.000331746 -7.39573e-23)
(0.084778 -0.0247637 -3.54015e-20)
(0.0853493 -0.0210877 0)
(0.08449 -0.0187589 0)
(0.0840439 -0.0164863 2.74354e-20)
(0.0838511 -0.0144082 -2.49614e-21)
(0.083818 -0.012552 -4.90598e-20)
(0.0839084 -0.0109054 2.28288e-20)
(0.0840785 -0.00945522 0)
(0.0842954 -0.00818039 0)
(0.0845363 -0.00705785 0)
(0.0847849 -0.00606534 -2.26416e-22)
(0.0850304 -0.00518271 -6.48903e-22)
(0.0852652 -0.00439233 -5.66839e-21)
(0.0854845 -0.00367908 5.46053e-21)
(0.0856857 -0.00303177 -1.99826e-21)
(0.0858689 -0.00244799 1.76506e-21)
(0.0860396 -0.00193318 0)
(0.0861569 -0.001434 -5.69817e-23)
(0.0861609 -0.000933582 -7.16157e-23)
(0.0861124 -0.000499407 0)
(0.0879113 -0.0231495 5.59719e-22)
(0.0874342 -0.0185943 3.3815e-20)
(0.0868611 -0.0156089 -3.34632e-20)
(0.0864396 -0.0132035 0)
(0.0861317 -0.0112091 -2.73602e-20)
(0.0859278 -0.009521 5.23755e-20)
(0.0858299 -0.0080716 -2.50383e-20)
(0.0858217 -0.00682231 0)
(0.0858829 -0.00574591 -9.66374e-21)
(0.0859936 -0.00481973 1.82746e-20)
(0.086137 -0.00402352 -8.86898e-21)
(0.0862994 -0.00333887 2.199e-22)
(0.0864704 -0.00274915 0)
(0.0866426 -0.00223951 5.20545e-21)
(0.0868106 -0.00179707 -7.07427e-21)
(0.0869684 -0.00141155 2.06213e-21)
(0.0871098 -0.00107689 1.22751e-21)
(0.0872338 -0.000796163 -8.71598e-22)
(0.0873396 -0.000544186 -4.02062e-22)
(0.0873879 -0.000325015 0)
(0.0961906 -0.0280051 0)
(0.0921874 -0.0266532 0)
(0.0903078 -0.0236737 0)
(0.0892092 -0.0206854 0)
(0.0884145 -0.0180695 0)
(0.0878529 -0.0158048 0)
(0.0874785 -0.0138195 0)
(0.0872447 -0.0120608 0)
(0.0871162 -0.0104928 0)
(0.0870653 -0.00908872 0)
(0.0870701 -0.00782687 0)
(0.0871132 -0.00668849 0)
(0.087181 -0.00565707 0)
(0.0872631 -0.00471814 0)
(0.0873517 -0.00385931 0)
(0.0874395 -0.00307005 0)
(0.0875192 -0.00234009 0)
(0.087583 -0.00166189 0)
(0.0876262 -0.00104494 0)
(0.087649 -0.000563961 0)
(0.0993004 -0.0219583 0)
(0.0954673 -0.0208619 0)
(0.0929763 -0.0188646 0)
(0.0913836 -0.0167702 0)
(0.0902508 -0.0148293 0)
(0.0894424 -0.0130779 0)
(0.0888707 -0.011502 0)
(0.0884697 -0.0100823 0)
(0.0881954 -0.00880209 0)
(0.0880159 -0.00764669 0)
(0.0879072 -0.00660279 0)
(0.0878506 -0.00565787 0)
(0.0878314 -0.00480008 0)
(0.0878382 -0.0040183 0)
(0.0878619 -0.00330224 0)
(0.0878947 -0.00264248 0)
(0.0879299 -0.00203001 0)
(0.0879611 -0.00145713 0)
(0.0879831 -0.000927367 0)
(0.0879944 -0.000506483 0)
(0.100157 -0.0189946 0)
(0.0969544 -0.0184064 0)
(0.0947031 -0.0170969 0)
(0.0930975 -0.0155513 0)
(0.0918629 -0.0139968 0)
(0.0909282 -0.0125147 0)
(0.0902281 -0.0111312 0)
(0.0897045 -0.00985201 0)
(0.0893161 -0.00867507 0)
(0.0890323 -0.00759488 0)
(0.0888294 -0.00660431 0)
(0.0886884 -0.00569539 0)
(0.0885947 -0.00485981 0)
(0.0885362 -0.00408926 0)
(0.0885035 -0.00337555 0)
(0.0884884 -0.00271074 0)
(0.0884845 -0.00208716 0)
(0.088486 -0.00149907 0)
(0.0884885 -0.000952822 0)
(0.0884899 -0.000516892 0)
(0.100617 -0.0168805 0)
(0.097898 -0.0164047 0)
(0.095959 -0.0154282 0)
(0.0944603 -0.0142413 0)
(0.093226 -0.0129911 0)
(0.0922408 -0.0117494 0)
(0.0914668 -0.0105526 0)
(0.0908604 -0.00941853 0)
(0.0903879 -0.00835435 0)
(0.0900227 -0.00736163 0)
(0.0897433 -0.00643854 0)
(0.089532 -0.00558123 0)
(0.0893747 -0.00478458 0)
(0.0892598 -0.00404275 0)
(0.0891778 -0.00334951 0)
(0.0891209 -0.00269836 0)
(0.0890828 -0.00208283 0)
(0.0890581 -0.00149836 0)
(0.0890429 -0.000952911 0)
(0.0890346 -0.000516865 0)
(0.100957 -0.0149385 0)
(0.0986036 -0.0145462 0)
(0.0969143 -0.0137941 0)
(0.0955341 -0.0128719 0)
(0.0943425 -0.0118692 0)
(0.0933524 -0.0108405 0)
(0.0925444 -0.00982156 0)
(0.0918885 -0.00883392 0)
(0.0913589 -0.00788958 0)
(0.0909341 -0.00699455 0)
(0.0905958 -0.00615088 0)
(0.0903285 -0.00535792 0)
(0.0901192 -0.00461323 0)
(0.0899574 -0.00391318 0)
(0.089834 -0.00325332 0)
(0.0897417 -0.00262865 0)
(0.0896745 -0.002034 0)
(0.0896277 -0.00146597 0)
(0.0895972 -0.000933547 0)
(0.0895797 -0.000507136 0)
(0.101241 -0.0132259 0)
(0.0991606 -0.0129152 0)
(0.0976596 -0.0123294 0)
(0.0963883 -0.0116029 0)
(0.0952557 -0.0107929 0)
(0.094286 -0.00994008 0)
(0.0934707 -0.00907553 0)
(0.0927898 -0.0082204 0)
(0.0922247 -0.00738837 0)
(0.0917589 -0.00658776 0)
(0.0913774 -0.00582299 0)
(0.0910671 -0.00509572 0)
(0.0908169 -0.00440554 0)
(0.0906171 -0.00375063 0)
(0.0904598 -0.0031281 0)
(0.0903382 -0.00253432 0)
(0.0902469 -0.00196537 0)
(0.0901814 -0.00141898 0)
(0.090138 -0.000904902 0)
(0.0901125 -0.000492415 0)
(0.101446 -0.0116931 0)
(0.0995947 -0.0114604 0)
(0.0982469 -0.0110028 0)
(0.0970738 -0.0104257 0)
(0.0960054 -0.00976777 0)
(0.0950694 -0.00905974 0)
(0.0942637 -0.0083274 0)
(0.0935752 -0.00758988 0)
(0.0929911 -0.00686076 0)
(0.0924991 -0.0061492 0)
(0.0920874 -0.00546095 0)
(0.0917455 -0.00479911 0)
(0.0914639 -0.00416475 0)
(0.0912344 -0.00355744 0)
(0.0910499 -0.00297554 0)
(0.0909046 -0.00241663 0)
(0.0907934 -0.00187787 0)
(0.0907125 -0.00135799 0)
(0.0906582 -0.000867182 0)
(0.0906258 -0.000472674 0)
(0.101584 -0.0103138 0)
(0.0999305 -0.0101454 0)
(0.0987113 -0.00978854 0)
(0.0976262 -0.0093285 0)
(0.096622 -0.00879283 0)
(0.0957263 -0.00820482 0)
(0.0949405 -0.00758561 0)
(0.0942564 -0.00695185 0)
(0.0936653 -0.00631614 0)
(0.0931586 -0.00568764 0)
(0.0927274 -0.00507261 0)
(0.0923632 -0.004475 0)
(0.0920585 -0.00389683 0)
(0.0918063 -0.00333867 0)
(0.0916006 -0.00279991 0)
(0.0914364 -0.00227906 0)
(0.0913093 -0.00177423 0)
(0.0912159 -0.00128495 0)
(0.0911526 -0.000821587 0)
(0.0911145 -0.000448506 0)
(0.101664 -0.00906652 0)
(0.100186 -0.00894985 0)
(0.0990778 -0.00867318 0)
(0.0980719 -0.00830658 0)
(0.0971294 -0.00787019 0)
(0.0962767 -0.0073821 0)
(0.0955167 -0.0068596 0)
(0.0948447 -0.00631691 0)
(0.0942553 -0.00576529 0)
(0.0937426 -0.0052134 0)
(0.0933 -0.00466752 0)
(0.0929213 -0.00413196 0)
(0.0926002 -0.00360932 0)
(0.0923313 -0.00310085 0)
(0.0921096 -0.00260667 0)
(0.0919307 -0.00212607 0)
(0.0917911 -0.00165791 0)
(0.0916877 -0.00120233 0)
(0.0916173 -0.000769668 0)
(0.0915746 -0.000420734 0)
(0.1017 -0.00793585 0)
(0.100378 -0.00785897 0)
(0.0993661 -0.00764593 0)
(0.0984311 -0.00735437 0)
(0.0975468 -0.00699916 0)
(0.096737 -0.0065946 0)
(0.0960057 -0.00615485 0)
(0.0953507 -0.00569191 0)
(0.0947689 -0.00521565 0)
(0.0942564 -0.00473394 0)
(0.0938088 -0.0042528 0)
(0.0934214 -0.00377657 0)
(0.0930896 -0.00330811 0)
(0.092809 -0.00284911 0)
(0.0925755 -0.00240021 0)
(0.0923856 -0.00196126 0)
(0.0922364 -0.0015317 0)
(0.0921253 -0.00111217 0)
(0.0920493 -0.000712712 0)
(0.0920028 -0.000390061 0)
(0.101704 -0.00690661 0)
(0.100521 -0.0068595 0)
(0.0995918 -0.00669677 0)
(0.0987202 -0.00646567 0)
(0.0978894 -0.0061772 0)
(0.097121 -0.00584277 0)
(0.0964194 -0.005474 0)
(0.0957839 -0.00508095 0)
(0.0952133 -0.00467214 0)
(0.0947054 -0.00425455 0)
(0.0942574 -0.00383374 0)
(0.093866 -0.00341386 0)
(0.0935277 -0.00299785 0)
(0.0932392 -0.0025876 0)
(0.0929975 -0.0021841 0)
(0.0927997 -0.00178759 0)
(0.0926433 -0.00139796 0)
(0.0925264 -0.00101619 0)
(0.092446 -0.000651827 0)
(0.0923967 -0.000357104 0)
(0.101686 -0.00596519 0)
(0.100625 -0.00593967 0)
(0.0997675 -0.00581649 0)
(0.098952 -0.0056342 0)
(0.0981699 -0.00540085 0)
(0.0974402 -0.00512558 0)
(0.0967675 -0.00481794 0)
(0.0961526 -0.00448631 0)
(0.0955953 -0.00413792 0)
(0.0950948 -0.0037789 0)
(0.0946495 -0.00341419 0)
(0.0942573 -0.00304767 0)
(0.0939159 -0.00268218 0)
(0.0936227 -0.00231965 0)
(0.0933755 -0.00196126 0)
(0.0931721 -0.00160754 0)
(0.0930107 -0.00125867 0)
(0.0928894 -0.00091584 0)
(0.0928058 -0.000587955 0)
(0.0927544 -0.000322395 0)
(0.101654 -0.00509904 0)
(0.100699 -0.00508867 0)
(0.0999034 -0.00499648 0)
(0.0991369 -0.00485365 0)
(0.0983982 -0.00466603 0)
(0.0977039 -0.00444096 0)
(0.0970586 -0.00418625 0)
(0.0964639 -0.00390882 0)
(0.0959207 -0.00361477 0)
(0.0954292 -0.00330933 0)
(0.0949887 -0.00299685 0)
(0.094598 -0.0026808 0)
(0.0942557 -0.00236383 0)
(0.0939602 -0.00204782 0)
(0.0937097 -0.00173401 0)
(0.0935026 -0.00142308 0)
(0.0933376 -0.00111542 0)
(0.0932133 -0.000812311 0)
(0.0931274 -0.000521877 0)
(0.0930744 -0.000286376 0)
(0.101615 -0.00429662 0)
(0.100751 -0.00429654 0)
(0.100007 -0.00422856 0)
(0.0992832 -0.00411773 0)
(0.0985827 -0.00396829 0)
(0.09792 -0.00378611 0)
(0.0972997 -0.00357755 0)
(0.096724 -0.00334827 0)
(0.0961948 -0.00310332 0)
(0.0957127 -0.00284711 0)
(0.0952781 -0.00258337 0)
(0.0948904 -0.00231513 0)
(0.0945488 -0.00204476 0)
(0.0942525 -0.00177401 0)
(0.0940003 -0.00150409 0)
(0.093791 -0.00123574 0)
(0.0936237 -0.000969474 0)
(0.0934974 -0.000706551 0)
(0.0934098 -0.00045422 0)
(0.0933557 -0.000249407 0)
(0.101573 -0.00354779 0)
(0.100787 -0.00355424 0)
(0.100086 -0.00350508 0)
(0.0993978 -0.00342029 0)
(0.0987299 -0.00330293 0)
(0.0980947 -0.00315772 0)
(0.0974965 -0.00298976 0)
(0.0969381 -0.00280361 0)
(0.0964219 -0.00260337 0)
(0.0959491 -0.00239268 0)
(0.0955206 -0.00217464 0)
(0.0951366 -0.00195182 0)
(0.0947968 -0.00172627 0)
(0.0945008 -0.00149955 0)
(0.094248 -0.00127278 0)
(0.0940375 -0.00104667 0)
(0.0938688 -0.000821779 0)
(0.0937411 -0.000599292 0)
(0.0936525 -0.000385476 0)
(0.0935976 -0.000211772 0)
(0.101533 -0.00284262 0)
(0.10081 -0.00285325 0)
(0.100145 -0.00281876 0)
(0.0994859 -0.00275525 0)
(0.0988453 -0.00266513 0)
(0.0982332 -0.00255214 0)
(0.0976538 -0.00242031 0)
(0.0971105 -0.0022732 0)
(0.0966057 -0.00211406 0)
(0.0961415 -0.00194579 0)
(0.0957189 -0.00177087 0)
(0.0953387 -0.00159142 0)
(0.0950011 -0.00140913 0)
(0.0947061 -0.00122531 0)
(0.0944533 -0.00104094 0)
(0.0942423 -0.000856675 0)
(0.0940728 -0.000673038 0)
(0.0939443 -0.000491078 0)
(0.093855 -0.000316013 0)
(0.0937996 -0.000173686 0)
(0.101493 -0.00217459 0)
(0.100823 -0.00218639 0)
(0.100187 -0.00216286 0)
(0.0995519 -0.00211671 0)
(0.0989331 -0.00204995 0)
(0.0983396 -0.00196546 0)
(0.0977755 -0.00186624 0)
(0.0972445 -0.00175496 0)
(0.0967494 -0.00163404 0)
(0.0962924 -0.00150568 0)
(0.0958751 -0.00137179 0)
(0.0954985 -0.001234 0)
(0.0951631 -0.00109364 0)
(0.0948692 -0.000951747 0)
(0.0946168 -0.000809111 0)
(0.0944057 -0.000666291 0)
(0.0942359 -0.000523731 0)
(0.094107 -0.000382297 0)
(0.0940173 -0.000246102 0)
(0.0939615 -0.000135314 0)
(0.101465 -0.00153233 0)
(0.100833 -0.00154579 0)
(0.100217 -0.00153056 0)
(0.0995995 -0.00149871 0)
(0.0989968 -0.00145237 0)
(0.0984172 -0.00139357 0)
(0.0978646 -0.00132433 0)
(0.097343 -0.00124644 0)
(0.0968554 -0.00116156 0)
(0.0964041 -0.00107121 0)
(0.095991 -0.000976731 0)
(0.0956173 -0.000879269 0)
(0.0952838 -0.000779779 0)
(0.0949911 -0.000679017 0)
(0.0947392 -0.00057756 0)
(0.0945283 -0.000475829 0)
(0.0943584 -0.000374162 0)
(0.0942292 -0.000273204 0)
(0.0941393 -0.000175928 0)
(0.0940833 -9.67824e-05 0)
(0.101437 -0.000923818 0)
(0.100838 -0.000927887 0)
(0.100237 -0.000915757 0)
(0.0996312 -0.000895229 0)
(0.0990389 -0.000867122 0)
(0.0984683 -0.000832118 0)
(0.0979234 -0.000791088 0)
(0.0974081 -0.000744941 0)
(0.0969255 -0.000694591 0)
(0.0964782 -0.00064091 0)
(0.0960681 -0.000584685 0)
(0.0956965 -0.000526599 0)
(0.0953644 -0.000467222 0)
(0.0950725 -0.000407011 0)
(0.0948211 -0.000346319 0)
(0.0946104 -0.000285404 0)
(0.0944405 -0.000224479 0)
(0.0943112 -0.00016394 0)
(0.0942212 -0.000105602 0)
(0.0941652 -5.81881e-05 0)
(0.101471 -0.000300575 0)
(0.100861 -0.00030954 0)
(0.100255 -0.00030555 0)
(0.0996498 -0.000298109 0)
(0.0990609 -0.000288444 0)
(0.0984942 -0.000276717 0)
(0.0979529 -0.000263088 0)
(0.0974408 -0.000247791 0)
(0.0969608 -0.000231101 0)
(0.0965155 -0.000213297 0)
(0.0961069 -0.000194635 0)
(0.0957365 -0.000175341 0)
(0.0954051 -0.000155605 0)
(0.0951137 -0.000135579 0)
(0.0948626 -0.000115382 0)
(0.094652 -9.5102e-05 0)
(0.0944821 -7.48095e-05 0)
(0.0943528 -5.46382e-05 0)
(0.0942626 -3.52046e-05 0)
(0.0942067 -1.94424e-05 0)
(0.121689 -0.00147117 3.96983e-21)
(0.121208 -0.0045852 0)
(0.120237 -0.00762734 -8.72904e-22)
(0.118799 -0.010542 -2.64737e-20)
(0.116927 -0.0132705 5.17731e-20)
(0.114667 -0.0157493 0)
(0.112063 -0.0179066 4.67156e-20)
(0.109114 -0.0196686 0)
(0.106031 -0.0209619 4.30671e-20)
(0.100986 -0.0220786 -6.50981e-22)
(0.119338 -0.00137282 -3.99636e-21)
(0.118883 -0.00431076 9.273e-22)
(0.117965 -0.0071827 -9.28927e-22)
(0.11661 -0.00994001 -1.44766e-22)
(0.114858 -0.0125323 -2.46428e-20)
(0.112764 -0.0149075 -1.59826e-21)
(0.110397 -0.0170086 0)
(0.107872 -0.0187846 -4.5154e-20)
(0.105673 -0.0201461 0)
(0.100815 -0.0208615 -4.09769e-20)
(0.117556 -0.00116749 8.03457e-21)
(0.117173 -0.00362394 0)
(0.116408 -0.00602714 -8.87977e-22)
(0.115284 -0.00833881 7.78584e-22)
(0.113838 -0.0105221 2.62746e-20)
(0.112113 -0.0125431 0)
(0.110144 -0.0143722 4.62512e-20)
(0.107986 -0.0160023 4.64037e-20)
(0.1062 -0.0174605 0)
(0.101421 -0.018565 4.05516e-20)
(0.116035 -0.00101517 -3.54515e-21)
(0.115698 -0.00315366 1.49324e-20)
(0.115028 -0.00525192 0)
(0.114045 -0.00728196 2.78636e-20)
(0.11278 -0.0092164 1.61356e-21)
(0.111277 -0.0110289 -3.14727e-21)
(0.109566 -0.0126943 -4.46081e-20)
(0.107692 -0.0141943 -1.45736e-21)
(0.106247 -0.0155238 -4.32626e-20)
(0.101882 -0.016657 0)
(0.114745 -0.000880986 0)
(0.114449 -0.00272637 -1.45497e-20)
(0.113862 -0.00453963 -1.66356e-20)
(0.113004 -0.00629872 2.61199e-21)
(0.111902 -0.00798267 -1.71146e-21)
(0.110594 -0.00957241 -1.53972e-21)
(0.109103 -0.0110523 -4.51284e-20)
(0.107456 -0.0124107 -2.84331e-21)
(0.106213 -0.0136322 1.04002e-21)
(0.102296 -0.0147636 4.09652e-20)
(0.113626 -0.000765306 4.08578e-21)
(0.113362 -0.0023649 9.5231e-22)
(0.112838 -0.00393978 -1.8894e-21)
(0.112074 -0.00547328 9.05483e-22)
(0.111095 -0.00694945 -2.68797e-20)
(0.109935 -0.00835328 0)
(0.108613 -0.00967248 4.94924e-20)
(0.107157 -0.0108945 -1.4638e-21)
(0.106065 -0.0119914 8.62758e-20)
(0.102608 -0.0130606 -8.1428e-20)
(0.112655 -0.000664337 -4.10592e-21)
(0.112416 -0.0020487 -7.85015e-21)
(0.111944 -0.00341372 1.49365e-20)
(0.111256 -0.00474652 -2.67302e-20)
(0.110376 -0.00603481 -1.82057e-21)
(0.109334 -0.00726712 -2.55945e-20)
(0.108148 -0.00843476 1.47018e-21)
(0.106847 -0.00952726 -2.85413e-21)
(0.105855 -0.010514 -4.15969e-20)
(0.102815 -0.0115111 4.0467e-20)
(0.11181 -0.000575905 0)
(0.111592 -0.00177325 1.67452e-20)
(0.11116 -0.00295569 -1.87981e-21)
(0.110532 -0.0041134 1.51541e-20)
(0.109729 -0.00523699 -8.34731e-23)
(0.10878 -0.00631753 4.97185e-20)
(0.1077 -0.00734847 -2.27177e-20)
(0.106526 -0.00832014 0)
(0.105602 -0.00920386 0)
(0.102929 -0.0101183 0)
(0.111077 -0.000497953 0)
(0.110874 -0.00153085 -1.49005e-20)
(0.110475 -0.00255229 -9.67035e-22)
(0.109894 -0.00355481 1.43495e-20)
(0.109153 -0.00453128 2.71832e-20)
(0.108276 -0.00547493 -2.72535e-20)
(0.107281 -0.00638108 2.72547e-20)
(0.106206 -0.00724107 -1.46641e-21)
(0.105327 -0.00803159 0)
(0.102969 -0.00886313 2.02094e-20)
(0.110441 -0.000428877 5.10672e-22)
(0.110252 -0.00131668 8.4417e-21)
(0.109878 -0.00219582 1.33135e-20)
(0.109335 -0.00306075 -8.3855e-22)
(0.108642 -0.00390615 1.75043e-21)
(0.107822 -0.00472697 -2.74222e-20)
(0.106892 -0.00551991 2.73912e-20)
(0.105895 -0.00627712 -1.46581e-21)
(0.105043 -0.00698182 0)
(0.102953 -0.00773196 -4.0118e-20)
(0.109894 -0.000367292 0)
(0.109715 -0.00112613 8.0267e-21)
(0.109362 -0.00187859 1.9818e-23)
(0.108848 -0.00262062 0)
(0.108192 -0.00334837 0)
(0.107417 -0.00405823 2.42679e-20)
(0.106538 -0.004748 -2.27399e-20)
(0.105599 -0.00541072 -1.39049e-21)
(0.10476 -0.00603626 7.21668e-22)
(0.102898 -0.00670827 2.05519e-20)
(0.109425 -0.00031203 0)
(0.109254 -0.000955545 -1.51479e-20)
(0.108917 -0.00159456 -1.72763e-20)
(0.108427 -0.00222625 2.71211e-21)
(0.1078 -0.00284796 -1.76317e-21)
(0.107059 -0.00345728 -1.58228e-21)
(0.106218 -0.00405281 3.04608e-21)
(0.105322 -0.00462853 1.99938e-20)
(0.104487 -0.00518031 2.01548e-21)
(0.102818 -0.00577739 -6.37099e-22)
(0.109028 -0.000262092 0)
(0.108863 -0.000801732 8.10831e-21)
(0.108539 -0.00133844 -9.43969e-22)
(0.108067 -0.00187042 9.36114e-22)
(0.107463 -0.00239598 0)
(0.106747 -0.00291365 0)
(0.105935 -0.00342267 0)
(0.105068 -0.00391804 -2.27456e-20)
(0.104229 -0.00440048 2.12567e-20)
(0.102723 -0.00492551 0)
(0.108695 -0.000216586 0)
(0.108536 -0.000661838 5.07639e-21)
(0.108221 -0.00110549 6.77321e-21)
(0.107763 -0.0015466 9.15413e-21)
(0.107176 -0.00198427 -1.77475e-21)
(0.106479 -0.00241782 1.14529e-20)
(0.105687 -0.00284694 -1.0644e-20)
(0.10484 -0.00326769 0)
(0.103993 -0.00368438 6.98193e-22)
(0.102623 -0.00413983 -2.0236e-20)
(0.108422 -0.000174796 -1.07184e-21)
(0.108267 -0.000533738 -4.09795e-21)
(0.10796 -0.000892235 -8.74982e-21)
(0.107512 -0.00125004 -6.4353e-21)
(0.106938 -0.00160693 0)
(0.106254 -0.00196283 -1.46333e-20)
(0.105477 -0.00231775 1.52295e-20)
(0.10464 -0.00266877 -1.45506e-21)
(0.103782 -0.00302232 -1.04867e-20)
(0.102524 -0.00340982 2.91543e-20)
(0.108204 -0.000135879 1.07735e-21)
(0.108052 -0.000414371 -3.11305e-21)
(0.107751 -0.000693387 2.91956e-21)
(0.107311 -0.0009733 -7.41877e-21)
(0.106745 -0.00125449 0)
(0.106071 -0.00153745 0)
(0.105303 -0.00182259 1.48664e-21)
(0.104471 -0.00210804 -1.4163e-20)
(0.103599 -0.00240111 -9.11839e-21)
(0.102432 -0.00272326 -9.64121e-21)
(0.108038 -9.98673e-05 0)