/*--------------------------------*- C++ -*----------------------------------*\
| =========                 |                                                 |
| \\      /  F ield         | OpenFOAM: The Open Source CFD Toolbox           |
|  \\    /   O peration     | Version:  4.1                                   |
|   \\  /    A nd           | Web:      www.OpenFOAM.org                      |
|    \\/     M anipulation  |                                                 |
\*---------------------------------------------------------------------------*/
FoamFile
{
    version     2.0;
    format      ascii;
    class       surfaceScalarField;
    location    "6.6";
    object      phi;
}
// * * * * * * * * * * * * * * * * * * * * * * * * * * * * * * * * * * * * * //

dimensions      [0 3 -1 0 0 0 0];

internalField   nonuniform List<scalar> 
3890
(
0.000433995
0.00197135
-0.00240535
0.00284615
-0.000809903
-0.00160225
0.0079824
-0.00811316
0.00297691
0.0160538
-0.0183713
0.0102999
0.0265155
-0.0297937
0.019332
0.0382908
-0.040708
0.0289328
0.050209
-0.0499924
0.0380741
0.0613697
-0.0572611
0.0461004
0.0710745
-0.0624047
0.0526999
-0.0657011
0.0580533
0.0787223
0.000739984
0.00123137
0.00417588
-0.0042458
0.0109865
-0.0149237
0.0208101
-0.028195
0.0323327
-0.0413163
0.0440237
-0.052399
0.0547418
-0.0607105
0.0638618
-0.0663811
0.0712681
-0.0698109
-0.0718738
0.0774408
0.00115566
7.57045e-05
0.00581227
-0.00890242
0.0142455
-0.023357
0.025152
-0.0391014
0.036562
-0.0527263
0.0469513
-0.0627883
0.0555973
-0.0693565
0.0624195
-0.0732033
0.0677949
-0.0751864
-0.076206
0.0721271
0.00166924
-0.00159354
0.00762749
-0.0148607
0.0172636
-0.0329931
0.0282576
-0.0500955
0.0384819
-0.0629506
0.0468889
-0.0711953
0.05336
-0.0758277
0.0582729
-0.0781162
0.062157
-0.0790705
-0.079454
0.065405
0.00226902
-0.00386256
0.00940467
-0.0219963
0.0195074
-0.0430958
0.0296336
-0.0602217
0.0380622
-0.0713791
0.044414
-0.077547
0.0490487
-0.0804624
0.0525331
-0.0816006
0.0553785
-0.0819159
-0.081994
0.0579185
0.00291274
-0.0067753
0.0108665
-0.0299501
0.0206161
-0.0528455
0.0292551
-0.0688606
0.0357568
-0.0778809
0.0403065
-0.0820968
0.0435098
-0.0836657
0.0459486
-0.0840394
0.0480377
-0.084005
-0.0839087
0.0499524
0.00353069
-0.010306
0.0117696
-0.038189
0.0205168
-0.0615926
0.0274215
-0.0757653
0.032139
-0.0825984
0.0352104
-0.0851682
0.0373082
-0.0857635
0.0389341
-0.0856652
0.0403716
-0.0854425
-0.0852766
0.0417395
0.00402996
-0.0143359
0.01198
-0.046139
0.019351
-0.0689636
0.0245301
-0.0809444
0.0277012
-0.0857696
0.0295787
-0.0870457
0.0307911
-0.0869759
0.0317245
-0.0865986
0.0325647
-0.0862827
-0.0860794
0.0333674
0.00432422
-0.0186602
0.0115064
-0.0533212
0.0173584
-0.0748157
0.0209483
-0.0845343
0.0228124
-0.0876337
0.0237074
-0.0879407
0.0241656
-0.0874341
0.0244636
-0.0868966
0.0247066
-0.0865257
-0.0862994
0.0249266
0.00436499
-0.0230252
0.0104773
-0.0594335
0.0147983
-0.0791367
0.0169731
-0.0867091
0.0177308
-0.0883914
0.0177851
-0.087995
0.017559
-0.0872079
0.017241
-0.0865787
0.0168923
-0.0861769
0.0165206
-0.0859277
-0.000959597
0.000959597
-0.00276206
0.00180246
-0.00492629
0.00216423
-0.00720741
0.00228112
-0.00946727
0.00225986
-0.0116218
0.00215448
-0.0136183
0.00199658
-0.0154292
0.00181083
-0.017055
0.00162585
0.00148489
-0.0185399
-0.000837245
0.00179684
-0.00242309
0.00338831
-0.00432044
0.00406158
-0.00628539
0.00424607
-0.00817225
0.00414672
-0.00988474
0.00386697
-0.0113541
0.0034659
-0.0125346
0.00299141
-0.0134054
0.00249662
0.0020766
-0.0139971
-0.000623833
0.00242068
-0.00183007
0.00459455
-0.0032443
0.00547581
-0.00463456
0.00563633
-0.00584788
0.00536004
-0.00677191
0.00479099
-0.00731385
0.00400784
-0.00739921
0.00307676
-0.00697702
0.00207443
0.00110633
-0.00600675
-0.000377832
0.00279851
-0.00111888
0.00533559
-0.00192204
0.00627898
-0.00257197
0.00628627
-0.00291175
0.00569982
-0.00281767
0.00469691
-0.00217683
0.003367
-0.000877986
0.00177792
0.00118586
1.05795e-05
-0.00174135
0.00403355
-0.000157937
0.00295645
-0.000436219
0.00561388
-0.000593756
0.00643651
-0.000428763
0.00612127
0.000222741
0.00504832
0.00149981
0.00341984
0.00352495
0.00134186
0.00641147
-0.0011086
0.0102306
-0.00380858
-0.00684588
0.0153352
-5.32211e-06
0.00296177
0.00011399
0.00549456
0.000572815
0.00597769
0.00158165
0.00511244
0.00332613
0.00330384
0.00597031
0.000775671
0.00965149
-0.00233932
0.0144724
-0.00592953
0.0203763
-0.00971246
-0.0143922
0.0279226
7.2443e-05
0.00288932
0.000508111
0.0050589
0.00155885
0.00492695
0.00346952
0.00320177
0.00647111
0.000302241
0.010768
-0.00352124
0.0164686
-0.00803989
0.0236056
-0.0130665
0.0319159
-0.0180228
-0.0243704
0.0418941
0.000103658
0.00278567
0.000832282
0.00433027
0.00252981
0.00322942
0.00551573
0.000215848
0.0100809
-0.00426291
0.0163815
-0.0098219
0.0244089
-0.0160672
0.0339611
-0.0226187
0.0446349
-0.0286965
-0.0360378
0.0563023
0.000141192
0.00264447
0.00123524
0.00323622
0.00376816
0.000696506
0.00815294
-0.00416893
0.0146311
-0.010741
0.0231705
-0.0183613
0.0334373
-0.0263341
0.0448714
-0.0340528
0.0570288
-0.040854
-0.0477781
0.0687691
0.000239127
0.0018731
0.00554651
0.0116775
0.0202685
0.03084
0.04258
0.0546276
0.0664735
0.0767487
-0.0190368
0.000496854
-0.0193135
0.000276756
-0.0193197
6.19506e-06
-0.0190936
-0.000226138
-0.0186142
-0.000479355
-0.0178756
-0.000738656
-0.0168752
-0.00100039
-0.015613
-0.00126217
-0.0140947
-0.00151828
-0.0123272
-0.00176753
-0.0103193
-0.00200791
-0.00808203
-0.00223727
-0.00562667
-0.00245536
-0.00296528
-0.00266139
-0.000111617
-0.00285366
0.00292186
-0.00303348
0.00614078
-0.00321892
0.0095565
-0.00341572
0.013173
-0.00361651
-0.00384403
-0.014253
0.000752755
-0.0143105
0.000334215
-0.0141582
-0.000146082
-0.0137713
-0.000613046
-0.0131488
-0.0011018
-0.0122859
-0.00160157
-0.0111804
-0.00210592
-0.00983121
-0.00261135
-0.00824098
-0.00310851
-0.00641913
-0.00358939
-0.00437383
-0.0040532
-0.00211622
-0.00449487
0.000337245
-0.00490883
0.0029707
-0.00529484
0.00577456
-0.00565753
0.00873951
-0.00599843
0.0118498
-0.00632919
0.0151046
-0.00667052
0.0185013
-0.00701319
-0.00742716
-0.0058055
0.000551501
-0.00545214
-1.91457e-05
-0.00497282
-0.000625395
-0.00429036
-0.00129551
-0.00340501
-0.00198715
-0.00231306
-0.00269352
-0.00101054
-0.00340844
0.000493463
-0.00411535
0.00219575
-0.00481079
0.00409959
-0.00549322
0.00619577
-0.00614939
0.00847157
-0.00677068
0.0109134
-0.00735067
0.013505
-0.00788643
0.0162269
-0.00837938
0.0190607
-0.00883225
0.0219862
-0.00925476
0.0249831
-0.00966742
0.0280356
-0.0100657
-0.0105656
0.0048418
-0.000256754
0.00563473
-0.000812078
0.00656627
-0.00155693
0.00764479
-0.00237404
0.00887394
-0.00321631
0.0102569
-0.00407651
0.011798
-0.00494955
0.0135038
-0.00582109
0.0153741
-0.00668109
0.0173989
-0.00751805
0.0195687
-0.00831917
0.0218706
-0.00907258
0.02429
-0.00977006
0.026808
-0.0104044
0.0294054
-0.0109768
0.0320579
-0.0114848
0.0347457
-0.0119426
0.037433
-0.0123548
0.0401021
-0.0127347
-0.0131869
0.0166735
-0.0015951
0.0179871
-0.00212565
0.0193779
-0.00294775
0.0208692
-0.00386533
0.0224617
-0.00480882
0.024157
-0.00577185
0.02596
-0.00675251
0.0278751
-0.0077362
0.0298999
-0.00870591
0.0320264
-0.00964448
0.0342438
-0.0105367
0.0365379
-0.0113666
0.038893
-0.0121252
0.0412882
-0.0127996
0.0437064
-0.013395
0.0461188
-0.0138971
0.0485127
-0.0143365
0.0508421
-0.0146842
0.0531068
-0.0149995
-0.0153017
0.0296413
-0.0033138
0.0313266
-0.0038109
0.0330649
-0.0046861
0.0348659
-0.00566634
0.0367254
-0.00666831
0.0386469
-0.00769334
0.0406328
-0.00873836
0.0426808
-0.00978426
0.0447852
-0.0108103
0.046936
-0.0117953
0.0491214
-0.0127221
0.0513248
-0.0135699
0.053531
-0.0143314
0.055718
-0.0149866
0.0578731
-0.0155502
0.0599666
-0.0159906
0.0619965
-0.0163664
0.0639132
-0.0166008
0.0657432
-0.0168295
-0.0169293
0.0436876
-0.00510734
0.0454968
-0.00562003
0.0473491
-0.00653839
0.049237
-0.00755433
0.0511641
-0.0085954
0.0531315
-0.00966075
0.0551317
-0.0107385
0.0571534
-0.011806
0.0591855
-0.0128423
0.0612141
-0.0138239
0.0632253
-0.0147333
0.0652016
-0.0155462
0.06713
-0.0162599
0.0689908
-0.0168474
0.070778
-0.0173373
0.0724661
-0.0176787
0.074064
-0.0179644
0.0755278
-0.0180646
0.0769039
-0.0182057
-0.0181032
0.0578452
-0.00665034
0.059526
-0.00730081
0.0612398
-0.00825216
0.0629806
-0.00929515
0.0647607
-0.0103755
0.0665698
-0.0114699
0.0683864
-0.0125551
0.0701912
-0.0136108
0.0719689
-0.01462
0.0737037
-0.0155587
0.0753823
-0.016412
0.0769905
-0.0171544
0.0785209
-0.0177903
0.0799612
-0.0182877
0.0813127
-0.0186888
0.0825601
-0.018926
0.0837184
-0.0191227
0.0847563
-0.0191025
0.0857242
-0.0191736
-0.0189181
0.070019
-0.00790019
0.07147
-0.0087518
0.0729353
-0.00971747
0.0744201
-0.01078
0.0759297
-0.0118851
0.0774395
-0.0129796
0.0789242
-0.0140398
0.0803664
-0.015053
0.0817548
-0.0160084
0.08308
-0.0168839
0.0843371
-0.0176691
0.0855214
-0.0183387
0.0866341
-0.018903
0.087673
-0.0193266
0.0886448
-0.0196605
0.0895442
-0.0198255
0.0903846
-0.0199631
0.0911469
-0.0198648
0.0918632
-0.0198899
-0.0195346
0.0782776
-0.00942904
0.0796047
-0.0100789
0.0808627
-0.0109755
0.082073
-0.0119903
0.0832427
-0.0130549
0.0843742
-0.0141111
0.0854652
-0.0151308
0.086512
-0.0160998
0.0875142
-0.0170106
0.088473
-0.0178427
0.089393
-0.0185891
0.0902772
-0.0192229
0.0911314
-0.0197572
0.0919576
-0.0201527
0.0927611
-0.020464
0.093541
-0.0206054
0.0942999
-0.020722
0.0950318
-0.0205967
0.0957346
-0.0205927
-0.0201492
0.106771
-0.00843759
-0.107763
0.106199
-0.00950698
0.105698
-0.0104743
0.1052
-0.0114925
0.104679
-0.0125335
0.104117
-0.0135485
0.103499
-0.0145132
0.102814
-0.0154149
0.102054
-0.0162508
0.101217
-0.0170056
0.100307
-0.0176785
0.0993295
-0.0182459
0.0982965
-0.0187241
0.0972189
-0.0190752
0.0961079
-0.019353
0.0949773
-0.0194748
0.0938318
-0.0195765
0.0926899
-0.0194547
0.0915377
-0.0194405
-0.0190096
0.110602
-0.00768015
-0.11136
0.109914
-0.0088185
0.109292
-0.00985194
0.108649
-0.0108497
0.107951
-0.0118358
0.107194
-0.0127917
0.106379
-0.0136977
0.105503
-0.0145389
0.104565
-0.0153128
0.103566
-0.0160071
0.102512
-0.0166243
0.10141
-0.0171439
0.100269
-0.0175827
0.0990992
-0.0179056
0.0979092
-0.0181629
0.0967114
-0.0182771
0.0955088
-0.0183739
0.0943171
-0.018263
0.0931282
-0.0182516
-0.0178687
0.112422
-0.00695346
-0.113149
0.111711
-0.00810732
0.111022
-0.00916242
0.110313
-0.0101415
0.109554
-0.0110766
0.108735
-0.0119722
0.107856
-0.0128188
0.10692
-0.0136029
0.105928
-0.0143211
0.104884
-0.0149629
0.103792
-0.0155324
0.10266
-0.0160121
0.101496
-0.0164188
0.10031
-0.0167198
0.0991094
-0.0169618
0.0979052
-0.0170729
0.0966994
-0.0171681
0.0955103
-0.0170738
0.0943277
-0.0170691
-0.0167228
0.113156
-0.00632245
-0.113787
0.112486
-0.00743749
0.111798
-0.0084747
0.111081
-0.00942461
0.110316
-0.0103108
0.109491
-0.0111477
0.108608
-0.0119359
0.10767
-0.0126649
0.106681
-0.0133315
0.105644
-0.0139258
0.104564
-0.0144528
0.103449
-0.0148972
0.102306
-0.0152755
0.101143
-0.0155572
0.0999672
-0.015786
0.0987891
-0.0158948
0.0976105
-0.0159895
0.0964472
-0.0159105
0.0952898
-0.0159117
-0.0156037
0.113379
-0.00577963
-0.113922
0.112772
-0.00683058
0.112122
-0.00782441
0.111429
-0.00873185
0.110685
-0.00956702
0.109884
-0.0103468
0.109026
-0.0110778
0.108115
-0.0117533
0.107154
-0.0123707
0.106149
-0.0129205
0.105104
-0.0134079
0.104026
-0.0138193
0.102921
-0.0141706
0.101797
-0.0144338
0.100661
-0.0146494
0.099521
-0.014755
0.0983796
-0.0148481
0.0972511
-0.0147821
0.0961277
-0.0147882
-0.0145133
0.113472
-0.00530645
-0.113945
0.112925
-0.00628356
0.112318
-0.00721754
0.111658
-0.00807158
0.110943
-0.00885273
0.110173
-0.00957649
0.109347
-0.0102521
0.10847
-0.0108756
0.107544
-0.0114453
0.106576
-0.0119523
0.10557
-0.0124019
0.104532
-0.0127815
0.103468
-0.0131066
0.102385
-0.0133511
0.101289
-0.0135529
0.100188
-0.0136539
0.0990838
-0.0137441
0.0979901
-0.0136883
0.0968999
-0.013698
-0.0134519
0.113612
-0.00488594
-0.114033
0.113111
-0.00578209
0.11254
-0.00664658
0.111909
-0.00744042
0.111221
-0.00816525
0.110479
-0.00883377
0.109682
-0.00945558
0.108835
-0.0100285
0.107942
-0.0105518
0.107007
-0.0110175
0.106035
-0.0114304
0.105033
-0.0117792
0.104005
-0.0120785
0.102958
-0.0123043
0.101897
-0.0124917
0.10083
-0.012587
0.0997587
-0.0126729
0.0986957
-0.0126253
0.0976348
-0.0126372
-0.0124162
0.113846
-0.0044983
-0.114234
0.113375
-0.00531101
0.11283
-0.0061019
0.112222
-0.00683207
0.111556
-0.00749912
0.110835
-0.00811281
0.110061
-0.00868211
0.109239
-0.00920586
0.108371
-0.00968409
0.107463
-0.0101096
0.10652
-0.0104869
0.105546
-0.0108057
0.104547
-0.0110797
0.10353
-0.0112868
0.102498
-0.0114595
0.101459
-0.0115482
0.100415
-0.0116289
0.0993773
-0.0115877
0.0983409
-0.0116008
-0.0114022
0.114161
-0.0041276
-0.114531
0.113708
-0.00485886
0.113182
-0.00557552
0.11259
-0.00624051
0.11194
-0.00684895
0.111236
-0.00740813
0.110479
-0.00792595
0.109675
-0.00840177
0.108827
-0.0088361
0.10794
-0.00922244
0.107019
-0.00956523
0.106068
-0.00985476
0.105092
-0.010104
0.104098
-0.0102925
0.103088
-0.0104503
0.102072
-0.0105319
0.10105
-0.0106067
0.100033
-0.0105708
0.0990164
-0.0105842
-0.010406
0.114528
-0.00376472
-0.114891
0.114087
-0.00441775
0.113572
-0.00506111
0.112992
-0.00566067
0.112354
-0.0062103
0.111661
-0.00671534
0.110918
-0.00718259
0.110127
-0.00761157
0.109294
-0.00800305
0.108423
-0.00835124
0.107518
-0.00866027
0.106585
-0.00892127
0.105627
-0.00914618
0.104651
-0.00931633
0.10366
-0.00945928
0.102661
-0.00953342
0.101657
-0.00960198
0.100656
-0.00957052
0.0996557
-0.00958364
-0.00942428
0.114921
-0.00340443
-0.115281
0.114485
-0.00398215
0.113978
-0.00455383
0.113406
-0.00508855
0.112775
-0.00557969
0.112091
-0.00603111
0.111357
-0.00644861
0.110577
-0.00683172
0.109755
-0.00718132
0.108896
-0.00749221
0.108004
-0.00776823
0.107084
-0.00800132
0.106141
-0.00820237
0.105179
-0.00835447
0.104202
-0.00848261
0.103218
-0.00854919
0.102227
-0.00861116
0.10124
-0.00858359
0.100252
-0.00859606
-0.00845448
0.115317
-0.00304303
-0.115678
0.114883
-0.00354826
0.114379
-0.00405018
0.113812
-0.00452113
0.113187
-0.00495446
0.112509
-0.00535297
0.111782
-0.00572151
0.11101
-0.00605963
0.110196
-0.00636817
0.109347
-0.00664253
0.108465
-0.0068862
0.107555
-0.00709194
0.106622
-0.00726955
0.105672
-0.0074039
0.104707
-0.00751733
0.103734
-0.0075763
0.102754
-0.00763152
0.101778
-0.00760747
0.100801
-0.00761899
-0.00749441
0.115699
-0.00267802
-0.116064
0.115265
-0.00311357
0.114762
-0.00354775
0.114197
-0.00395624
0.113576
-0.00433266
0.112902
-0.00467903
0.11218
-0.0049994
0.111413
-0.00529331
0.110607
-0.00556155
0.109764
-0.00580007
0.10889
-0.00601196
0.107989
-0.00619086
0.107065
-0.0063454
0.106123
-0.00646226
0.105167
-0.00656113
0.104203
-0.00661251
0.103232
-0.00666087
0.102265
-0.00664009
0.101297
-0.00665046
-0.00654231
0.116055
-0.00230806
-0.116425
0.115618
-0.00267659
0.115115
-0.003045
0.114551
-0.00339235
0.113932
-0.00371283
0.11326
-0.00400786
0.112542
-0.00428082
0.11178
-0.00453126
0.110978
-0.00475987
0.110141
-0.00496315
0.109273
-0.00514379
0.108378
-0.00529628
0.107461
-0.00542808
0.106527
-0.00552773
0.105578
-0.00561215
0.104621
-0.005656
0.103658
-0.00569746
0.102697
-0.00567979
0.101736
-0.00568886
-0.00559671
0.116374
-0.00193271
-0.116749
0.115934
-0.00223659
0.11543
-0.002541
0.114866
-0.00282848
0.114247
-0.00309395
0.113578
-0.00333844
0.112862
-0.0035647
0.112103
-0.00377233
0.111305
-0.00396189
0.110472
-0.00413046
0.109609
-0.00428029
0.108719
-0.00440676
0.107807
-0.00451612
0.106878
-0.00459878
0.105935
-0.00466889
0.104984
-0.00470528
0.104027
-0.00473981
0.103072
-0.00472516
0.102116
-0.00473282
-0.00465639
0.116649
-0.00155214
-0.11703
0.116206
-0.00179338
0.1157
-0.00203533
0.115136
-0.00226405
0.114517
-0.00247536
0.113849
-0.00267004
0.113134
-0.00285023
0.112378
-0.00301562
0.111582
-0.00316664
0.110753
-0.00330096
0.109893
-0.00342034
0.109007
-0.00352113
0.108099
-0.00360828
0.107175
-0.00367418
0.106236
-0.00373008
0.10529
-0.00375911
0.104337
-0.00378668
0.103387
-0.00377502
0.102435
-0.0037812
-0.00372026
0.116874
-0.00116701
-0.11726
0.116428
-0.00134723
0.115921
-0.00152796
0.115356
-0.00169882
0.114737
-0.00185669
0.114069
-0.00200217
0.113356
-0.00213683
0.112601
-0.00226047
0.111807
-0.00237335
0.11098
-0.00247379
0.110123
-0.00256302
0.10924
-0.00263842
0.108335
-0.00270355
0.107414
-0.00275289
0.106479
-0.00279464
0.105536
-0.00281644
0.104586
-0.00283699
0.10364
-0.00282835
0.102691
-0.00283296
-0.00278737
0.117045
-0.00077845
-0.117434
0.116597
-0.0008988
0.116088
-0.00101918
0.115522
-0.00113283
0.114903
-0.0012378
0.114236
-0.00133455
0.113523
-0.00142411
0.112769
-0.00150638
0.111977
-0.00158145
0.111152
-0.0016483
0.110296
-0.0017076
0.109416
-0.00175783
0.108513
-0.00180106
0.107594
-0.00183402
0.106661
-0.00186163
0.105721
-0.00187635
0.104774
-0.00188978
0.10383
-0.00188427
0.102884
-0.00188715
-0.0018569
0.117159
-0.000388073
-0.117549
0.11671
-0.000449228
0.1162
-0.000509671
0.115634
-0.000566444
0.115015
-0.000618795
0.114347
-0.000667109
0.113635
-0.000711833
0.112882
-0.000752993
0.112091
-0.000790451
0.111266
-0.000823924
0.110412
-0.000853418
0.109533
-0.00087867
0.108632
-0.000900006
0.107715
-0.000916829
0.106783
-0.000930095
0.105845
-0.000938192
0.104899
-0.000943851
0.103957
-0.000942563
0.103012
-0.000942072
-0.000928829
0.117214
-0.117602
0.116764
0.116255
0.115688
0.115069
0.114402
0.113691
0.112938
0.112147
0.111323
0.11047
0.109591
0.108691
0.107774
0.106844
0.105906
0.104962
0.10402
0.103077
0.0874589
0.0149024
-0.0858407
0.0893264
0.0230591
0.0914629
0.031231
0.0938629
0.0393395
0.0965395
0.0472758
0.0995062
0.0549517
0.102431
0.0624798
0.105702
0.0688569
0.106946
0.0761965
0.0779054
0.0873676
0.0134248
-0.08589
0.0891395
0.0212871
0.0912155
0.029155
0.0936341
0.0369209
0.0962859
0.044624
0.0994314
0.0518063
0.102489
0.0594218
0.106239
0.0651072
0.109415
0.0730205
0.0759606
0.0874432
0.0121087
-0.0861272
0.0890978
0.0196326
0.0910528
0.0272
0.0934232
0.0345505
0.0960027
0.0420445
0.0991193
0.0486897
0.102336
0.0562047
0.105949
0.0614945
0.110013
0.0689569
0.0728241
0.0876439
0.0109307
-0.0864659
0.0891915
0.018085
0.0910394
0.0253521
0.0933204
0.0322695
0.0958671
0.0394979
0.09885
0.0457068
0.102206
0.052849
0.105679
0.058021
0.109938
0.0646983
0.0689751
0.087934
0.00986135
-0.0868646
0.0893874
0.0166315
0.0911693
0.0235702
0.0933556
0.0300832
0.0959021
0.0369513
0.0987681
0.0428408
0.102163
0.0494545
0.105625
0.0545582
0.109789
0.0605349
0.0648422
0.0882826
0.0088775
-0.0872988
0.0896521
0.0152621
0.0913937
0.0218286
0.0935052
0.0279716
0.0960468
0.0344097
0.0988573
0.0400303
0.102209
0.0461027
0.105705
0.0510623
0.109739
0.0565007
0.0606365
0.0886645
0.00796524
-0.0877523
0.089962
0.0139646
0.0916692
0.0201214
0.0937326
0.0259083
0.0962517
0.0318907
0.0990511
0.0372309
0.102342
0.0428122
0.105864
0.0475394
0.109825
0.05254
0.0564288
0.0890606
0.00711713
-0.0882125
0.0902998
0.0127254
0.0919711
0.0184502
0.0940071
0.0238722
0.096497
0.0294008
0.0993037
0.0344242
0.102555
0.0395605
0.106098
0.0439973
0.110034
0.0486032
0.0522292
0.0894578
0.00632808
-0.0886687
0.0906505
0.0115327
0.0922864
0.0168143
0.0943067
0.0218518
0.0967731
0.0269345
0.0995911
0.0316061
0.102831
0.0363209
0.10639
0.0404382
0.110328
0.0446647
0.0480263
0.0898465
0.00559288
-0.0891113
0.0910013
0.0103779
0.0926059
0.0152097
0.0946158
0.0198419
0.0970677
0.0244825
0.0998962
0.0287776
0.103139
0.0330784
0.106715
0.0368615
0.110669
0.0407112
0.0438046
0.0902194
0.00490568
-0.0895322
0.0913422
0.00925505
0.0929208
0.0136312
0.0949224
0.0178403
0.097367
0.0220379
0.100205
0.0259399
0.103457
0.029826
0.107054
0.0332643
0.11103
0.0367356
0.0395535
0.0905701
0.00426046
-0.0899249
0.0916653
0.00815986
0.0932229
0.0120736
0.0952175
0.0158458
0.0976593
0.019596
0.100506
0.0230929
0.103772
0.0265606
0.107392
0.0296442
0.111393
0.0327345
0.035268
0.0908932
0.00365145
-0.0902842
0.0919644
0.00708865
0.0935053
0.0105327
0.0954942
0.0138568
0.0979359
0.0171543
0.100793
0.020236
0.104073
0.023281
0.107716
0.0260003
0.111743
0.0287077
0.0309468
0.0911842
0.00307342
-0.0906062
0.092235
0.00603792
0.0937624
0.00900526
0.0957471
0.0118722
0.0981903
0.014711
0.101057
0.0173689
0.104351
0.019987
0.108018
0.0223337
0.11207
0.0246561
0.0265914
0.0914397
0.00252121
-0.0908875
0.0924733
0.00500437
0.0939899
0.00748866
0.0959716
0.00989046
0.0984172
0.0122654
0.101294
0.014492
0.104602
0.0166795
0.108289
0.018646
0.112363
0.0205821
0.0222052
0.0916569
0.00198833
-0.0911241
0.0926761
0.00398522
0.0941841
0.0059806
0.0961639
0.00791066
0.0986124
0.00981693
0.101498
0.0116062
0.104818
0.0133598
0.108524
0.01494
0.112617
0.0164886
0.0177929
0.0918338
0.00147388
-0.0913193
0.0928414
0.00297758
0.0943428
0.00447921
0.0963213
0.00593213
0.0987725
0.00736578
0.101666
0.00871246
0.104996
0.0100298
0.108718
0.0112187
0.112827
0.0123795
0.0133601
0.0919684
0.000973579
-0.0914681
0.0929669
0.00197907
0.0944633
0.00298285
0.096441
0.00395435
0.0988946
0.00491222
0.101795
0.00581234
0.105133
0.00669147
0.108866
0.00748558
0.112987
0.00825869
0.00891301
0.0920583
0.000485102
-0.0915698
0.0930503
0.000987103
0.0945429
0.0014902
0.0965203
0.001977
0.0989757
0.00245674
0.101881
0.00290745
0.105225
0.0033473
0.108966
0.00374448
0.113094
0.0041306
0.00445752
0.0921033
-0.0916182
0.0930904
0.0945806
0.0965576
0.0990144
0.101922
0.105269
0.109014
0.113144
0.042142
0.0574508
-0.0526668
-0.046926
0.0369697
0.0577869
-0.0526146
0.0318118
0.0584777
-0.0533198
0.0266685
0.059579
-0.0544356
0.0215105
0.0610452
-0.0558872
0.01632
0.062929
-0.0577386
0.0111123
0.0651917
-0.059984
0.00608506
0.0666732
-0.0616459
0.00191486
0.0620891
-0.0579189
0.037044
-0.0351292
0.0385427
0.0624094
-0.0435013
0.0336223
0.0627073
0.0287521
0.0633478
0.0239261
0.064405
0.0191023
0.065869
0.0142539
0.0677774
0.00942399
0.0700217
0.00487279
0.0712243
0.00132049
0.0656414
0.0383645
0.0345689
0.0670156
-0.039175
0.0299424
0.0673338
0.0253558
0.0679343
0.0208309
0.0689299
0.0163401
0.0703598
0.0118591
0.0722584
0.00746167
0.0744191
0.0034777
0.0752083
0.000626635
0.0684925
0.0389911
0.0299406
0.0712235
-0.0341485
0.02571
0.0715644
0.0214938
0.0721505
0.0173329
0.0730909
0.0132222
0.0744705
0.00915292
0.0763277
0.00522705
0.078345
0.00189467
0.0785407
-0.000153912
0.0705411
0.0388372
0.0246853
0.0750139
-0.0284757
0.0208903
0.0753595
0.0171156
0.0759252
0.0133916
0.0768149
0.00972323
0.0781389
0.00612774
0.0799232
0.00274117
0.0817315
-1.24245e-05
0.0812943
-0.000869692
0.0713983
0.0379675
0.018827
0.0783333
-0.0221464
0.0155224
0.078664
0.012246
0.0792016
0.00901966
0.0800412
0.00585622
0.0813023
0.0028092
0.0829702
0.000104381
0.0844364
-0.00163081
0.0830295
-0.00162405
0.0713916
0.0363435
0.0124441
0.0811073
-0.0152181
0.00968174
0.0814264
0.00694641
0.0819369
0.00426497
0.0827227
0.00166264
0.0839047
-0.000774721
0.0854075
-0.00271603
0.0863777
-0.00350429
0.0838177
-0.00237682
0.0702641
0.0339667
0.0056064
0.0833011
-0.00780025
0.00341239
0.0836204
0.00126847
0.0840808
-0.000832825
0.084824
-0.00285573
0.0859276
-0.00462316
0.087175
-0.00573092
0.0874854
-0.0054319
0.0835187
-0.00309074
0.0679229
0.0308759
-0.00161273
0.0850233
-0.000109473
-0.0032111
0.0852188
-0.0047679
0.0856376
-0.00627367
0.0863298
-0.00764749
0.0873014
-0.00867134
0.0881988
-0.00882712
0.0876412
-0.00730859
0.0820002
-0.00370347
0.0643178
0.0271724
-0.0091637
0.00825929
-0.0101218
-0.0110629
-0.011941
-0.0126346
-0.0128272
-0.0118952
-0.00903165
-0.00414728
0.0494354
0.00469383
-0.0541292
0.0445726
0.00486278
0.0395151
0.0050575
0.0342406
0.00527448
0.0287186
0.00552198
0.0229075
0.00581111
0.0167592
0.00614833
0.0102963
0.00646288
0.00401455
0.00628173
0.00401455
0.0495376
0.00944274
-0.0542866
0.0446284
0.00977203
0.0395338
0.0101521
0.0342317
0.0105767
0.0286911
0.0110625
0.02287
0.0116322
0.0167186
0.0122998
0.0102585
0.012923
0.00400034
0.0125399
0.00801489
0.0497052
0.0142947
-0.0545572
0.0447093
0.014768
0.0395455
0.0153158
0.0341914
0.0159307
0.0286157
0.0166383
0.0227757
0.0174721
0.0166223
0.0184532
0.0101799
0.0193654
0.0039559
0.0187639
0.0119708
0.0498669
0.0192795
-0.0548517
0.0447593
0.0198756
0.0395064
0.0205687
0.0340861
0.021351
0.0284672
0.0222573
0.0226071
0.0233321
0.0164574
0.0246029
0.0100465
0.0257763
0.00388433
0.0249261
0.0158551
0.0499276
0.0244074
-0.0550555
0.0446983
0.0251049
0.0393497
0.0259174
0.0338621
0.0268387
0.0282044
0.027915
0.0223332
0.0292032
0.0162014
0.0307347
0.00984439
0.0321333
0.00377775
0.0309927
0.0196329
0.0498008
0.0296543
-0.0550476
0.0444613
0.0304444
0.0390221
0.0313566
0.0334738
0.0323869
0.0277884
0.0336004
0.021922
0.0350696
0.0158296
0.0368271
0.00955721
0.0384058
0.00362857
0.0369213
0.0232614
0.0493295
0.0350157
-0.054691
0.0438886
0.0358853
0.0383852
0.03686
0.0328137
0.0379585
0.0271381
0.039276
0.021313
0.0408946
0.0152992
0.0428409
0.00915911
0.0445459
0.00343041
0.04265
0.0266919
0.0486274
0.0404552
-0.0540669
0.0430747
0.041438
0.0375168
0.0424179
0.0319366
0.0435387
0.0262826
0.04493
0.020514
0.0466632
0.014604
0.0487509
0.00863797
0.0505119
0.00317738
0.0481106
0.0298692
0.0470391
0.0461601
-0.052744
0.0414352
0.047042
0.0359859
0.0478671
0.0305373
0.0489872
0.0250197
0.0504476
0.0194046
0.0522782
0.0136783
0.0544772
0.00795771
0.0562325
0.00283996
0.0532284
0.0327092
0.0454042
-0.0519108
0.0398316
0.0343789
0.0289305
0.0234909
0.0180306
0.0125239
0.00711047
0.00241996
0.058942
-0.000236899
0.0591809
-0.000238877
0.0594144
-0.000233564
0.0596354
-0.000221
0.0598371
-0.000201672
0.0600133
-0.000176227
0.0601578
-0.000144417
0.0602631
-0.000105381
0.0603208
-5.76805e-05
0.0603188
2.05246e-06
0.0602544
6.43926e-05
0.0601139
0.000140429
0.0598842
0.000229721
0.0595502
0.000334042
0.0590946
0.000455623
0.0584968
0.000597721
0.0577342
0.000762634
0.0567761
0.000958096
0.0555989
0.00117719
0.00146975
0.0594266
-0.000471026
0.0596576
-0.000469852
0.0598792
-0.000455192
0.0600867
-0.000428453
0.0602744
-0.000389353
0.0604363
-0.000338156
0.0605659
-0.000274067
0.0606559
-0.000195389
0.0606975
-9.9252e-05
0.0606816
1.79208e-05
0.0606009
0.000145169
0.0604433
0.000297953
0.0601959
0.000477192
0.0598434
0.000686563
0.0593685
0.00093046
0.0587506
0.00121559
0.057967
0.00154625
0.0569861
0.00193899
0.0557855
0.00237785
0.00296867
0.0603805
-0.000675315
0.0605843
-0.00067364
0.0607788
-0.000649685
0.0609583
-0.000607987
0.0611172
-0.000548175
0.0612494
-0.000470382
0.0613485
-0.00037323
0.0614071
-0.000253925
0.0614159
-0.000108076
0.0613691
6.47022e-05
0.0612548
0.000259527
0.0610621
0.000490626
0.0607781
0.000761155
0.0603877
0.00107702
0.0598735
0.00144465
0.0592144
0.00187468
0.0583881
0.00237256
0.057361
0.00296607
0.0561138
0.00362506
0.00452525
0.0617604
-0.000835786
0.0619192
-0.000832422
0.0620681
-0.000798549
0.0622012
-0.000741137
0.0623127
-0.000659637
0.0623964
-0.000554095
0.0624462
-0.000423027
0.0624547
-0.000262435
0.0624114
-6.47792e-05
0.0623135
0.000162627
0.0621454
0.000427616
0.0618969
0.00073909
0.0615554
0.00110273
0.0611052
0.00152714
0.0605295
0.00202042
0.059806
0.00259816
0.0589134
0.00326513
0.0578147
0.00406478
0.0564964
0.00494343
0.00616991
0.0635097
-0.000930643
0.0636015
-0.000924248
0.0636825
-0.000879568
0.0637472
-0.000805794
0.0637894
-0.000701878
0.0638026
-0.000567267
0.0637798
-0.000400188
0.0637144
-0.000197067
0.063599
5.06367e-05
0.0634247
0.000336872
0.0631788
0.000673503
0.0628507
0.00106727
0.0624274
0.00152598
0.0618931
0.00206145
0.0612311
0.00268247
0.0604177
0.00341152
0.0594337
0.00424912
0.0582365
0.00526197
0.0568213
0.00635863
0.00793568
0.0655594
-0.000934544
0.0655579
-0.000922767
0.0655445
-0.000866209
0.065514
-0.000775326
0.0654606
-0.000648391
0.0653779
-0.000484564
0.0652587
-0.000281043
0.0650954
-3.37727e-05
0.064879
0.000267076
0.0645995
0.000616372
0.0642482
0.00102475
0.0638129
0.00150264
0.0632809
0.00205797
0.0626353
0.00270703
0.0618603
0.00345748
0.0609292
0.00434257
0.0598264
0.00535198
0.0585012
0.00658718
0.0569619
0.00789784
0.00984999
0.0678368
-0.000817447
0.0677112
-0.000797164
0.0675727
-0.000727633
0.0674165
-0.000619164
0.0672369
-0.000468818
0.0670272
-0.000274869
0.066786
-3.98128e-05
0.0664911
0.000261127
0.0661448
0.000613414
0.065734
0.00102713
0.0652488
0.00150995
0.0646769
0.00207451
0.064007
0.00272788
0.0632208
0.00349324
0.0623053
0.00437295
0.0612299
0.00541794
0.0599856
0.00659638
0.0585053
0.00806738
0.0568046
0.00959864
0.0119636
0.0702721
-0.000547096
0.0699892
-0.000514241
0.0696914
-0.000429823
0.0693747
-0.000302489
0.0690384
-0.000132505
0.0686745
8.90594e-05
0.0682598
0.000374841
0.0678047
0.000716263
0.0672964
0.00112173
0.0667232
0.00160034
0.0660752
0.00215788
0.0653382
0.00281152
0.0645016
0.00356448
0.0635435
0.0044514
0.0624572
0.0054592
0.0612036
0.0066716
0.0597945
0.00800544
0.0581413
0.00972062
0.0563215
0.0114184
0.0142181
0.0728107
-8.216e-05
0.0723322
-3.57107e-05
0.0718429
5.94801e-05
0.0713332
0.000207151
0.0707963
0.000404465
0.0702253
0.00066006
0.0696216
0.00097851
0.0689726
0.00136525
0.0682694
0.00182492
0.0675004
0.0023694
0.066656
0.00300228
0.0657203
0.00374719
0.0646858
0.00459897
0.0635257
0.00561152
0.0622418
0.00674309
0.0607753
0.00813812
0.0591648
0.00961593
0.0572576
0.0116278
0.0552521
0.013424
0.0167262
0.0754445
0.000652695
0.0747126
0.000696141
0.0739739
0.000798238
0.0732247
0.000956298
0.0724554
0.00117375
0.0716589
0.00145663
0.0708276
0.00180981
0.0699516
0.0022412
0.0690223
0.00275423
0.068028
0.00336372
0.0669606
0.00406966
0.0658038
0.00490402
0.0645554
0.00584736
0.0631872
0.00697971
0.0617231
0.00820716
0.060095
0.00976621
0.0584253
0.0112857
0.0564663
0.0135868
0.0546623
0.0152279
0.0194777
0.0721958
0.00064839
0.0721911
0.000700791
0.0721866
0.0008028
0.0721831
0.000959799
0.0721804
0.00117644
0.0721792
0.00145785
0.0721818
0.00180717
0.0721907
0.00223234
0.0722104
0.00273446
0.0722444
0.00332979
0.072303
0.00401097
0.0723899
0.00481715
0.0725306
0.00570664
0.0727211
0.00678922
0.0730289
0.00789941
0.0734114
0.00938364
0.0740641
0.0106331
0.0748547
0.0127961
0.0764397
0.013643
0.0169745
0.0789429
0.0748441
0.000649383
0.074844
0.000700943
0.074848