/*--------------------------------*- C++ -*----------------------------------*\
| =========                 |                                                 |
| \\      /  F ield         | OpenFOAM: The Open Source CFD Toolbox           |
|  \\    /   O peration     | Version:  4.1                                   |
|   \\  /    A nd           | Web:      www.OpenFOAM.org                      |
|    \\/     M anipulation  |                                                 |
\*---------------------------------------------------------------------------*/
FoamFile
{
    version     2.0;
    format      ascii;
    class       surfaceScalarField;
    location    "4.7";
    object      phi;
}
// * * * * * * * * * * * * * * * * * * * * * * * * * * * * * * * * * * * * * //

dimensions      [0 3 -1 0 0 0 0];

internalField   nonuniform List<scalar> 
3890
(
0.000701377
0.00044212
-0.0011435
0.00330825
-0.00411384
0.00150697
0.0080339
-0.0119915
0.00726584
0.0146414
-0.0214977
0.0148902
0.0224652
-0.0310471
0.0232233
0.0306742
-0.0394499
0.0312409
0.0385467
-0.046093
0.0382205
0.0456038
-0.050878
0.043821
0.0515516
-0.0539255
0.0479777
-0.0556922
0.0509142
0.0563295
0.000951521
-0.000509401
0.00425623
-0.00741855
0.00993446
-0.0176697
0.0173495
-0.0289127
0.0254737
-0.0391713
0.0333507
-0.0473269
0.0403638
-0.0531061
0.0462555
-0.0567697
0.0510937
-0.0587637
-0.0597311
0.0551327
0.00125753
-0.00176693
0.00530575
-0.0114668
0.0117943
-0.0241583
0.0195953
-0.0367137
0.0274395
-0.0470155
0.0344496
-0.054337
0.0402541
-0.0589106
0.0448594
-0.061375
0.0484936
-0.0623979
-0.0626174
0.0513799
0.0016066
-0.00337353
0.00636607
-0.0162262
0.0133752
-0.0311674
0.0210576
-0.0443962
0.0281265
-0.0540844
0.0339615
-0.0601721
0.0384912
-0.0634403
0.0419401
-0.0648239
0.0446312
-0.065089
-0.064816
0.0468298
0.00197702
-0.00535055
0.00731846
-0.0215677
0.0144563
-0.0383052
0.0215592
-0.0514991
0.0275445
-0.0600697
0.0321267
-0.0647542
0.0354879
-0.0668015
0.0379733
-0.0673093
0.0399202
-0.0670359
-0.0664524
0.0415565
0.00233898
-0.00768952
0.00804055
-0.0272693
0.0149003
-0.0451649
0.0210952
-0.0576941
0.0258814
-0.0648558
0.029285
-0.0681578
0.0316545
-0.069171
0.0333744
-0.0690292
0.0347447
-0.0684062
-0.0676398
0.0359321
0.00265571
-0.0103452
0.00843528
-0.0330488
0.014676
-0.0514056
0.019788
-0.0628062
0.0233958
-0.0684636
0.0257603
-0.0705224
0.0273079
-0.0707185
0.0284021
-0.0701234
0.0292814
-0.0692856
-0.068425
0.0300666
0.00288783
-0.0132331
0.00844943
-0.0386104
0.0138386
-0.0567948
0.0178189
-0.0667864
0.0203412
-0.0709859
0.0218151
-0.0719963
0.0226776
-0.0715811
0.0232403
-0.0706861
0.0236801
-0.0697253
-0.0688199
0.024075
0.0030022
-0.0162353
0.00808609
-0.0436943
0.0124959
-0.0612046
0.015376
-0.0696664
0.0169309
-0.0725408
0.0176429
-0.0727083
0.0179168
-0.071855
0.0180011
-0.0707704
0.0180173
-0.0697415
-0.0688182
0.0180156
0.00298046
-0.0192157
0.00739657
-0.0481104
0.010776
-0.064584
0.012628
-0.0715184
0.0133304
-0.0732432
0.0133798
-0.0727577
0.0131272
-0.0716024
0.0127624
-0.0704056
0.0123666
-0.0693456
0.0119654
-0.0684171
-0.000782112
0.000782112
-0.00214178
0.00135967
-0.0036175
0.00147572
-0.00495626
0.00133876
-0.00599697
0.0010407
-0.00662558
0.000628618
-0.00675691
0.000131329
-0.00635249
-0.000404425
-0.00540983
-0.000942657
-0.00140535
-0.00400448
-0.000691894
0.00147401
-0.00188623
0.002554
-0.00315557
0.00274506
-0.00425186
0.00243505
-0.00501559
0.00180443
-0.00533341
0.000946436
-0.00512198
-8.00965e-05
-0.00433328
-0.00119312
-0.00295348
-0.00232246
-0.00331052
-0.00104831
-0.000529942
0.00200395
-0.00142655
0.00345061
-0.00231122
0.00362973
-0.00295036
0.00307419
-0.00318799
0.00204207
-0.00291135
0.000669798
-0.00204874
-0.000942706
-0.000531788
-0.00271008
0.00165943
-0.00451367
-0.00613197
0.00448088
-0.000333054
0.002337
-0.000846239
0.0039638
-0.00121939
0.00400288
-0.00123759
0.00309239
-0.00074759
0.00155206
0.000353413
-0.000431205
0.00213722
-0.00272651
0.00464763
-0.00522048
0.00790642
-0.00777247
-0.0101547
0.0119291
-0.000138413
0.00247542
-0.000236908
0.00406229
-3.16226e-05
0.0037976
0.000684582
0.00237619
0.00205473
0.000181914
0.00417191
-0.00254839
0.00708962
-0.00564422
0.0108123
-0.00894318
0.0153106
-0.0122707
-0.0154867
0.0206426
2.81548e-05
0.00244726
0.000334623
0.00375582
0.00115395
0.00297827
0.00267536
0.000854779
0.00503881
-0.00218153
0.00832311
-0.0058327
0.0125317
-0.00985277
0.0175994
-0.0140109
0.0233982
-0.0180695
-0.0220532
0.0299648
0.000157581
0.00228968
0.000848805
0.0030646
0.00229972
0.00152735
0.00469798
-0.00154347
0.00816455
-0.00564811
0.0127254
-0.0103936
0.018296
-0.0154233
0.0246959
-0.0204108
0.0316767
-0.0250504
-0.0295226
0.0391461
0.000263516
0.00202616
0.00133769
0.00199043
0.00346739
-0.00060235
0.00683216
-0.00490824
0.0114963
-0.0103123
0.0173702
-0.0162675
0.0242172
-0.0222703
0.0317047
-0.0278983
0.0394813
-0.0328269
-0.0372812
0.0472399
0.000371807
0.00165436
0.00186856
0.000493672
0.00476349
-0.00349728
0.0091937
-0.00933845
0.0150885
-0.0162071
0.0221531
-0.023332
0.029945
-0.0300622
0.0379966
-0.0359499
0.0459153
-0.0407457
-0.0445742
0.0532083
0.00051086
0.0025115
0.00628005
0.0118318
0.018848
0.0267569
0.0349151
0.0427862
0.0500182
0.0563583
-0.00227321
-0.00173128
-0.000321286
-0.00195192
0.00183677
-0.00215805
0.00418003
-0.00234327
0.0066769
-0.00249687
0.00929514
-0.00261823
0.0120034
-0.00270828
0.0147717
-0.00276825
0.0175716
-0.00279999
0.0203776
-0.00280593
0.0231666
-0.00278897
0.0259188
-0.00275221
0.0286176
-0.00269881
0.0312494
-0.00263182
0.0338041
-0.00255472
0.0362755
-0.00247135
0.0386616
-0.00238615
0.0409622
-0.00230056
0.0431913
-0.00222913
-0.00214189
0.000727855
-0.00350745
0.00267344
-0.00389751
0.00481669
-0.0043013
0.00713076
-0.00465733
0.00958359
-0.0049497
0.0121441
-0.00517876
0.0147825
-0.00534669
0.0174702
-0.00545595
0.0201803
-0.00551005
0.0228882
-0.00551382
0.0255722
-0.005473
0.0282139
-0.00539386
0.0307978
-0.00528272
0.0333116
-0.0051456
0.0357463
-0.00498946
0.0380963
-0.00482131
0.0403612
-0.0046511
0.0425381
-0.00447744
0.0446467
-0.00433779
-0.00415087
0.00628994
-0.0053165
0.00824369
-0.00585126
0.0103569
-0.00641453
0.0126119
-0.00691231
0.0149782
-0.007316
0.0174268
-0.00762737
0.019931
-0.00785089
0.0224651
-0.00799007
0.0250048
-0.00804976
0.027528
-0.00803697
0.0300153
-0.00796029
0.0324505
-0.00782911
0.0348208
-0.00765297
0.0371158
-0.00744064
0.0393289
-0.00720259
0.0414556
-0.00694794
0.0434978
-0.00669331
0.0454507
-0.0064304
0.0473364
-0.00622349
-0.00593484
0.0137751
-0.00716249
0.0157121
-0.00778827
0.0177667
-0.00846907
0.0199253
-0.00907092
0.0221596
-0.00955032
0.0244437
-0.0099115
0.0267551
-0.0101623
0.0290722
-0.0103072
0.0313744
-0.0103519
0.0336427
-0.0103053
0.0358611
-0.0101787
0.0380167
-0.00998475
0.0400999
-0.00973614
0.0421034
-0.00944408
0.0440234
-0.00912264
0.0458569
-0.00878146
0.0476092
-0.00844555
0.0492734
-0.00809463
0.0508749
-0.007825
-0.00743318
0.0224637
-0.00898366
0.0243294
-0.00965399
0.0262701
-0.0104097
0.0282743
-0.0110751
0.0303176
-0.0115937
0.0323789
-0.0119727
0.0344399
-0.0122233
0.0364832
-0.0123505
0.038492
-0.0123607
0.0404515
-0.0122647
0.0423495
-0.0120767
0.0441769
-0.0118122
0.0459281
-0.0114873
0.0475991
-0.0111151
0.0491898
-0.0107134
0.0506986
-0.0102902
0.0521338
-0.00988077
0.0534874
-0.0094482
0.0547867
-0.00912434
-0.00863536
0.0316453
-0.0106642
0.033345
-0.0113536
0.0350864
-0.0121511
0.0368561
-0.0128448
0.038636
-0.0133736
0.0404109
-0.0137477
0.0421659
-0.0139783
0.0438863
-0.0140708
0.0455588
-0.0140332
0.0471729
-0.0138788
0.0487209
-0.0136248
0.0501982
-0.0132895
0.0516033
-0.0128923
0.0529355
-0.0124473
0.0541981
-0.011976
0.0553906
-0.0114827
0.0565234
-0.0110136
0.0575875
-0.0105123
0.0586101
-0.010147
-0.00957516
0.0405495
-0.0120677
0.0419774
-0.0127815
0.0434263
-0.0136001
0.044879
-0.0142975
0.0463283
-0.0148228
0.0477639
-0.0151832
0.0491707
-0.0153852
0.0505357
-0.0154358
0.0518499
-0.0153474
0.0531074
-0.0151364
0.0543058
-0.0148231
0.0554445
-0.0144282
0.056526
-0.0139739
0.0575526
-0.0134739
0.0585294
-0.0129527
0.0594556
-0.0124089
0.0603418
-0.0118998
0.0611775
-0.011348
0.061987
-0.0109565
-0.0103209
0.0482866
-0.0131144
0.0493831
-0.013878
0.0504808
-0.0146977
0.0515738
-0.0153905
0.0526637
-0.0159127
0.0537383
-0.0162578
0.0547841
-0.016431
0.0557936
-0.0164453
0.0567639
-0.0163177
0.0576952
-0.0160677
0.0585894
-0.0157173
0.0594488
-0.0152876
0.0602773
-0.0148024
0.0610776
-0.0142742
0.0618544
-0.0137295
0.0626044
-0.0131589
0.0633358
-0.0126312
0.0640356
-0.0120478
0.0647238
-0.0116446
-0.0109622
0.0539462
-0.0138523
0.0547593
-0.0146911
0.055535
-0.0154734
0.056296
-0.0161515
0.0570503
-0.0166671
0.0577887
-0.0169962
0.0585086
-0.0171509
0.0592149
-0.0171516
0.0599144
-0.0170172
0.0606113
-0.0167646
0.061308
-0.016414
0.062005
-0.0159845
0.0627023
-0.0154997
0.0633979
-0.0149699
0.0640932
-0.0144247
0.0647815
-0.0138473
0.0654672
-0.0133169
0.0661356
-0.0127163
0.0668024
-0.0123114
-0.011595
0.0572587
-0.0147526
0.0578799
-0.0153124
0.0583945
-0.015988
0.0588681
-0.0166251
0.0593312
-0.0171302
0.0598024
-0.0174674
0.0602945
-0.017643
0.060817
-0.0176742
0.0613763
-0.0175765
0.0619746
-0.0173629
0.0626107
-0.0170501
0.0632795
-0.0166533
0.0639745
-0.0161947
0.0646867
-0.015682
0.0654123
-0.0151504
0.066143
-0.014578
0.0668787
-0.0140525
0.0676052
-0.0134429
0.0683319
-0.0130381
-0.0123038
0.0834078
-0.0132395
-0.084921
0.0822056
-0.0141102
0.0810013
-0.0147837
0.0797503
-0.0153741
0.0784711
-0.015851
0.0771876
-0.016184
0.075917
-0.0163723
0.0746714
-0.0164287
0.0734627
-0.0163677
0.0723016
-0.0162018
0.0711975
-0.015946
0.0701569
-0.0156127
0.0691844
-0.0152222
0.0682823
-0.0147799
0.0674508
-0.0143189
0.0666881
-0.0138153
0.0659884
-0.0133528
0.0653489
-0.0128034
0.0647547
-0.0124439
-0.0117684
0.0852613
-0.0118722
-0.0866285
0.0839277
-0.0127766
0.0826315
-0.0134875
0.0813202
-0.0140627
0.0799911
-0.0145219
0.0786634
-0.0148563
0.0773538
-0.0150627
0.0760738
-0.0151486
0.0748326
-0.0151265
0.073639
-0.0150082
0.0725007
-0.0148077
0.0714236
-0.0145356
0.0704112
-0.0142098
0.0694653
-0.0138341
0.0685849
-0.0134384
0.0677689
-0.0129993
0.0670106
-0.0125945
0.0663106
-0.0121034
0.0656501
-0.0117833
-0.0111596
0.0859487
-0.0105816
-0.0872393
0.0846401
-0.0114681
0.083346
-0.0121934
0.0820501
-0.0127668
0.0807441
-0.0132158
0.0794382
-0.0135504
0.0781474
-0.0137719
0.0768834
-0.0138847
0.0756557
-0.0138987
0.0744719
-0.0138245
0.0733391
-0.0136749
0.0722622
-0.0134588
0.0712445
-0.0131921
0.0702874
-0.012877
0.0693899
-0.0125409
0.0685515
-0.0121609
0.0677657
-0.0118087
0.0670337
-0.0113714
0.0663375
-0.0110872
-0.0105162
0.08588
-0.00940075
-0.0870608
0.084667
-0.0102551
0.0834442
-0.0109706
0.082213
-0.0115356
0.0809722
-0.011975
0.0797292
-0.0123075
0.0784964
-0.0125391
0.077285
-0.0126734
0.0761042
-0.0127178
0.0749611
-0.0126814
0.0738619
-0.0125756
0.0728112
-0.0124081
0.071812
-0.0121929
0.0708661
-0.0119311
0.0699726
-0.0116475
0.0691318
-0.0113201
0.068338
-0.0110149
0.0675931
-0.0106265
0.0668811
-0.0103752
-0.00985459
0.0854006
-0.00835593
-0.0864454
0.0843092
-0.00916368
0.0831882
-0.00984963
0.0820477
-0.0103951
0.0808935
-0.0108209
0.0797334
-0.0111474
0.0785777
-0.0113833
0.0774365
-0.0115322
0.0763186
-0.0115999
0.0752309
-0.0115938
0.0741792
-0.0115239
0.0731681
-0.0113969
0.0722004
-0.0112252
0.0712784
-0.011009
0.0704017
-0.0107708
0.069571
-0.0104894
0.0687815
-0.0102254
0.0680363
-0.00988124
0.0673205
-0.00965947
-0.00918603
0.0847662
-0.00744429
-0.0856778
0.0837926
-0.00819012
0.082776
-0.00883305
0.081731
-0.00935004
0.0806672
-0.00975707
0.079593
-0.0100732
0.0785176
-0.0103078
0.0774501
-0.0104647
0.0763987
-0.0105486
0.0753704
-0.0105655
0.0743705
-0.0105241
0.0734037
-0.0104301
0.0724729
-0.0102944
0.0715806
-0.0101167
0.0707268
-0.00991705
0.0699129
-0.00967552
0.069135
-0.00944753
0.0683967
-0.0091429
0.0676847
-0.00894745
-0.00851823
0.0841173
-0.00664194
-0.0849196
0.083246
-0.00731881
0.0823243
-0.00791136
0.081368
-0.00839382
0.0803885
-0.00877755
0.0793945
-0.00907915
0.0783944
-0.00930772
0.0773966
-0.00946694
0.0764088
-0.00956079
0.0754376
-0.00959431
0.0744885
-0.00957491
0.0735657
-0.00950732
0.0726723
-0.00940108
0.0718111
-0.00925544
0.0709825
-0.00908848
0.0701884
-0.00888138
0.0694255
-0.00868468
0.0686981
-0.00841549
0.0679942
-0.00824352
-0.00785569
0.0835159
-0.00592453
-0.0842333
0.0827296
-0.0065325
0.0818897
-0.00707145
0.0810114
-0.00751556
0.0801064
-0.0078725
0.0791834
-0.0081562
0.0782506
-0.00837485
0.0773155
-0.00853189
0.0763855
-0.00863075
0.0754667
-0.00867555
0.0745644
-0.00867258
0.0736828
-0.00862575
0.0728251
-0.0085434
0.0719942
-0.00842445
0.0711908
-0.00828507
0.0704171
-0.00810773
0.0696707
-0.00793828
0.0689562
-0.00770095
0.0682626
-0.00755
-0.00720097
0.0829824
-0.0052739
-0.0836331
0.0822654
-0.00581543
0.0814941
-0.00630015
0.0806824
-0.0067039
0.0798416
-0.00703171
0.0789804
-0.00729497
0.0781063
-0.00750074
0.0772264
-0.00765209
0.0763476
-0.00775191
0.0754757
-0.0078036
0.0746156
-0.00781249
0.0737716
-0.00778174
0.0729468
-0.00771861
0.0721441
-0.00762181
0.0713648
-0.00750573
0.0706112
-0.00735419
0.0698815
-0.00720856
0.0691806
-0.00700001
0.0684985
-0.00686793
-0.00655543
0.0825176
-0.00467605
-0.0831155
0.0818565
-0.00515428
0.0811421
-0.00558574
0.0803867
-0.00594853
0.0796008
-0.00624583
0.0787927
-0.00648686
0.0779695
-0.00667752
0.0771378
-0.00682043
0.0763039
-0.00691801
0.0754734
-0.00697305
0.0746509
-0.00699003
0.0738407
-0.00697149
0.0730458
-0.00692371
0.0722692
-0.00684525
0.0715124
-0.00674889
0.070778
-0.00661982
0.0700645
-0.00649509
0.0693772
-0.0063127
0.068707
-0.00619765
-0.00591968
0.0821153
-0.00411984
-0.0826716
0.0814994
-0.00453836
0.0808321
-0.0049184
0.0801241
-0.00524052
0.0793849
-0.00550667
0.0786223
-0.00572428
0.077843
-0.00589819
0.0770531
-0.00603054
0.0762585
-0.00612336
0.0754643
-0.00617889
0.0746752
-0.00620089
0.073895
-0.00619137
0.073127
-0.00615572
0.0723743
-0.00609246
0.0716382
-0.00601281
0.0709218
-0.0059034
0.0702238
-0.00579712
0.0695497
-0.00563863
0.0688911
-0.00553906
-0.00529381
0.0817687
-0.00359663
-0.0822919
0.0811894
-0.00395905
0.0805609
-0.00428988
0.0798925
-0.00457216
0.0791929
-0.00480707
0.0784692
-0.00500054
0.0777275
-0.00515653
0.0769737
-0.00527674
0.0762131
-0.0053628
0.0754508
-0.00541654
0.074691
-0.00544106
0.0739375
-0.00543794
0.0731936
-0.00541178
0.0724622
-0.0053611
0.0717451
-0.00529566
0.0710453
-0.00520355
0.0703618
-0.00511366
0.0697003
-0.00497716
0.069053
-0.0048917
-0.0046776
0.0814719
-0.00309964
-0.0819689
0.0809222
-0.00340934
0.0803256
-0.00369322
0.0796902
-0.00393678
0.0790238
-0.00414069
0.078333
-0.00430969
0.0776234
-0.00444697
0.0769005
-0.00455384
0.0761693
-0.00463162
0.0754345
-0.00468176
0.0747003
-0.00470679
0.0739703
-0.00470796
0.0732476
-0.00468911
0.0725354
-0.00464885
0.0718352
-0.00459555
0.0711505
-0.00451878
0.0704803
-0.00444352
0.0698306
-0.00432738
0.0691938
-0.00425491
-0.00407056
0.0812205
-0.00262339
-0.0816968
0.0806945
-0.00288338
0.0801238
-0.0031225
0.0795156
-0.00332856
0.0788768
-0.00350192
0.0782135
-0.00364638
0.077531
-0.00376444
0.0768343
-0.00385712
0.0761281
-0.00392546
0.0754169
-0.00397057
0.0747047
-0.00399452
0.073995
-0.00399826
0.0732908
-0.00398496
0.0725953
-0.00395336
0.0719103
-0.00391051
0.071239
-0.00384745
0.0705808
-0.00378539
0.0699417
-0.00368824
0.0693146
-0.00362779
-0.00347199
0.0810107
-0.00216335
-0.0814707
0.0805036
-0.0023763
0.0799538
-0.00257263
0.0793676
-0.00274239
0.0787514
-0.00288576
0.0781108
-0.00300575
0.0774507
-0.00310431
0.0767758
-0.0031822
0.0760905
-0.00324022
0.0753992
-0.00327922
0.0747055
-0.00330084
0.074013
-0.00330579
0.0733247
-0.00329664
0.0726436
-0.00327229
0.0719716
-0.0032385
0.071312
-0.00318783
0.0706644
-0.0031378
0.0700347
-0.0030585
0.0694162
-0.00300927
-0.002881
0.0808395
-0.00171583
-0.0812871
0.0803472
-0.00188398
0.0798138
-0.00203921
0.0792452
-0.00217374
0.0786471
-0.0022877
0.0780247
-0.00238339
0.0773827
-0.0024623
0.0767255
-0.002525
0.0760574
-0.00257206
0.0753823
-0.00260413
0.0747039
-0.00262247
0.0740257
-0.00262759
0.0733505
-0.00262149
0.0726815
-0.00260326
0.0720205
-0.00257745
0.0713708
-0.00253814
0.0707321
-0.00249917
0.0701105
-0.00243682
0.0694993
-0.00239816
-0.00229658
0.0807044
-0.00127772
-0.0811425
0.0802233
-0.0014029
0.0797025
-0.00151841
0.0791474
-0.00161862
0.0785634
-0.00170367
0.0779552
-0.00177525
0.0773274
-0.00183446
0.0766841
-0.0018817
0.0760294
-0.00191736
0.0753672
-0.00194191
0.074701
-0.00195624
0.0740341
-0.00196075
0.0733695
-0.00195686
0.0727102
-0.00194393
0.0720579
-0.00192523
0.0714163
-0.00189649
0.0707849
-0.00186781
0.0701699
-0.00182176
0.0695648
-0.00179311
-0.00171757
0.0806031
-0.000846612
-0.0810342
0.0801303
-0.000930093
0.0796188
-0.00100689
0.0790736
-0.00107345
0.0784999
-0.00112997
0.0779023
-0.00117763
0.077285
-0.00121714
0.076652
-0.00124874
0.0760074
-0.00127269
0.0753547
-0.00128929
0.0746976
-0.00129911
0.0740393
-0.00130244
0.0733826
-0.00130014
0.0727305
-0.0012919
0.072085
-0.0012797
0.0714495
-0.00126097
0.0708237
-0.00124198
0.0702137
-0.00121178
0.0696132
-0.00119267
-0.00114277
0.0805345
-0.000420581
-0.0809605
0.0800675
-0.000463139
0.0795624
-0.000501747
0.0790239
-0.000534983
0.0784571
-0.000563183
0.0778665
-0.000587013
0.0772562
-0.000606807
0.0766301
-0.000622665
0.0759921
-0.00063469
0.0753459
-0.000643064
0.0746948
-0.000648036
0.0740422
-0.000649816
0.0733907
-0.000648715
0.0727436
-0.00064478
0.0721025
-0.000638621
0.0714712
-0.000629624
0.070849
-0.000619746
0.0702427
-0.000605519
0.0696448
-0.000594771
-0.000571525
0.0804985
-0.0809191
0.0800354
0.0795336
0.0789987
0.0784355
0.0778485
0.0772417
0.076619
0.0759843
0.0753412
0.0746932
0.0740434
0.0733947
0.0727499
0.0721113
0.0714816
0.0708619
0.0702564
0.0696616
0.0689264
0.0106683
-0.0676293
0.0704328
0.0165092
0.0721497
0.0223581
0.0740809
0.0281354
0.076197
0.033816
0.078502
0.0392515
0.0807256
0.0446062
0.0830313
0.0490742
0.0840262
0.0541377
0.0554348
0.0681068
0.00949347
-0.066932
0.0695233
0.0150928
0.071177
0.0207044
0.073093
0.0262194
0.0751991
0.0317099
0.0776134
0.0368372
0.0799993
0.0422203
0.0827243
0.0463492
0.0849971
0.0518649
0.0538033
0.0674208
0.00845527
-0.0663826
0.0687266
0.013787
0.0702807
0.0191503
0.0721333
0.0243668
0.0741849
0.0296583
0.076583
0.0344392
0.0790883
0.0397149
0.0818729
0.0435647
0.0848539
0.0488838
0.051418
0.066862
0.00753674
-0.0659435
0.0680629
0.0125861
0.0695216
0.0176915
0.0712928
0.0225956
0.0733004
0.0276507
0.075631
0.0321086
0.078225
0.0371209
0.0809785
0.0408113
0.0841898
0.0456724
0.048547
0.0664058
0.00671554
-0.0655846
0.0675163
0.0114757
0.0688993
0.0163085
0.0705889
0.0209061
0.0725608
0.0256787
0.0748095
0.0298599
0.0774138
0.0345166
0.0801292
0.0380959
0.0833302
0.0424715
0.0454318
0.0660279
0.00597468
-0.065287
0.0670606
0.010443
0.0683833
0.0149858
0.0699992
0.0192903
0.0719301
0.0237478
0.0741053
0.0276847
0.0766614
0.0319605
0.079352
0.0354052
0.0824766
0.0393469
0.0422306
0.0657109
0.00530245
-0.0650387
0.0666764
0.00947745
0.0679467
0.0137155
0.0695011
0.0177359
0.0713852
0.0218637
0.0735072
0.0255627
0.0759994
0.0294683
0.0786708
0.0327338
0.0817172
0.0363006
0.0390282
0.0654434
0.00469039
-0.0648313
0.0663513
0.00856949
0.0675737
0.0124931
0.0690793
0.0162302
0.0709169
0.0200262
0.0730024
0.0234771
0.0754359
0.0270348
0.0780828
0.0300869
0.0810625
0.0333208
0.0358574
0.0652173
0.00413166
-0.0646586
0.0660763
0.00771047
0.0672549
0.0113145
0.0687217
0.0147635
0.0705166
0.0182313
0.072573
0.0214207
0.0749569
0.0246509
0.0775747
0.027469
0.0805009
0.0303946
0.0327252
0.0650266
0.0036202
-0.0645151
0.0658439
0.0068931
0.0669833
0.0101751
0.0684176
0.0133292
0.0701748
0.0164741
0.0722047
0.0193908
0.074548
0.0223076
0.0771371
0.02488
0.0800204
0.0275113
0.0296302
0.0648662
0.00315018
-0.0643962
0.0656479
0.00611141
0.0667528
0.00907021
0.0681589
0.011923
0.0698838
0.0147493
0.0718892
0.0173853
0.0741997
0.0199972
0.0767622
0.0223175
0.0796097
0.0246637
0.0265683
0.0647319
0.00271685
-0.0642986
0.0654832
0.00536018
0.0665582
0.00799511
0.0679399
0.0105414
0.0696374
0.0130517
0.071621
0.0154018
0.0739041
0.0177141
0.0764428
0.0197787
0.0792596
0.021847
0.023536
0.0646204
0.00231141
-0.0642149
0.0653452
0.00463535
0.066395
0.00694531
0.0677555
0.00918089
0.0694305
0.0113768
0.0713948
0.0134375
0.0736549
0.015454
0.0761727
0.0172609
0.0789628
0.0190569
0.0205299
0.0645286
0.00193272
-0.06415
0.0652313
0.00393273
0.0662599
0.00591668
0.0676024
0.00783836
0.0692586
0.00972053
0.0712065
0.0114897
0.0734473
0.0132132
0.0759469
0.0147612
0.0787139
0.0162899
0.017547
0.0644546
0.00157649
-0.0640984
0.0651384
0.00324892
0.0661496
0.00490547
0.0674772
0.0065108
0.0691182
0.00807958
0.0710523
0.00955557
0.0732772
0.0109883
0.0757614
0.012277
0.0785087
0.0135426
0.014585
0.0643961
0.00123873
-0.0640584
0.0650645
0.00258055
0.0660617
0.00390829
0.0673772
0.00519529
0.069006
0.00645071
0.0709291
0.00763248
0.0731413
0.0087761
0.0756127
0.00980568
0.0783433
0.010812
0.0116412
0.0643515
0.000915605
-0.0640284
0.0650076
0.00192446
0.0659938
0.00292202
0.0673001
0.00388907
0.0689198
0.004831
0.0708345
0.0057178
0.0730367
0.00657381
0.0754978
0.00734465
0.0782146
0.00809513
0.00871331
0.0643191
0.000603664
-0.0640072
0.064966
0.00127761
0.0659443
0.00194372
0.0672439
0.00258946
0.0688572
0.0032177
0.0707659
0.00380905
0.0729611
0.0043787
0.0754142
0.00489152
0.07812
0.0053893
0.00579908
0.0642974
0.000300223
-0.0639939
0.064938
0.000636999
0.0659111
0.000970593
0.0672067
0.00129388
0.0688162
0.00160816
0.0707215
0.00190379
0.072912
0.0021882
0.0753596
0.0024439
0.0780572
0.00269176
0.00289572
0.0642861
-0.0639859
0.0649231
0.0658937
0.0671876
0.0687957
0.0706995
0.0728877
0.0753316
0.0780234
0.0330121
0.0471496
-0.0435559
-0.0366058
0.0290733
0.04787
-0.0439312
0.0250704
0.0488593
-0.0448563
0.0210148
0.0501367
-0.0460812
0.0168951
0.051685
-0.0475652
0.0127094
0.05353
-0.0493443
0.00850898
0.0554727
-0.0512723
0.00452482
0.0561713
-0.0521871
0.00134837
0.0510486
-0.0478722
0.0292053
-0.027857
0.0298256
0.0508561
-0.0335321
0.0261159
0.0515797
0.0223858
0.0525894
0.0186229
0.0538997
0.0148032
0.0555047
0.0109264
0.0574068
0.00707398
0.0593251
0.00352716
0.0597181
0.000886938
0.0536889
0.0300923
0.0264545
0.0542765
-0.0298749
0.022988
0.0550463
0.0195045
0.0560728
0.0160084
0.0573958
0.0124818
0.0590313
0.0089304
0.0609582
0.00546388
0.0627916
0.00241705
0.0627649
0.000372277
0.0557336
0.0304646
0.0226885
0.0573915
-0.0258035
0.0195234
0.0582114
0.0163349
0.0592614
0.0131389
0.0605917
0.00993196
0.0622383
0.006737
0.0641531
0.00369184
0.0658368
0.00119063
0.0652661
-0.000169276
0.0570935
0.0302953
0.0185328
0.0601893
-0.0213306
0.0156983
0.0610459
0.0128474
0.0621123
0.00999351
0.0634456
0.00714363
0.0650881
0.00434732
0.0669494
0.00178485
0.0683992
-0.000179104
0.0672301
-0.000685093
0.0575995
0.0296102
0.0140149
0.0626359
-0.0164615
0.0115443
0.0635165
0.00906291
0.0645936
0.00658481
0.0659237
0.00412901
0.0675439
0.00177542
0.069303
-0.000242517
0.0704172
-0.00138623
0.0683738
-0.00119672
0.05741
0.0284135
0.00918461
0.0646892
-0.0112379
0.00710648
0.0655946
0.00501834
0.0666818
0.00294497
0.0679971
0.000920094
0.0695688
-0.000939076
0.0711622
-0.00231681
0.0717949
-0.00271211
0.0687691
-0.0016922
0.0563901
0.0267213
0.00408841
0.0663358
-0.00573495
0.00241337
0.0672697
0.000748384
0.0683468
-0.000903971
0.0696495
-0.00247811
0.071143
-0.00379274
0.0724768
-0.00449167
0.0724938
-0.00403798
0.0683154
-0.00214926
0.0545014
0.024572
-0.0012307
0.0676569
-9.04666e-05
-0.00249151
0.0685305
-0.00374064
0.0695959
-0.00494967
0.0708585
-0.00602386
0.0722172
-0.00674061
0.0731936
-0.00667751
0.0724307
-0.00530242
0.0669403
-0.00253566
0.0517346
0.0220364
-0.00675448
0.00599434
-0.00756963
-0.00837936
-0.00912328
-0.00966385
-0.00971346
-0.00880115
-0.00644483
-0.00282064
0.0433591
0.0041891
-0.0475482
0.0390218
0.00433722
0.0345165
0.00450535
0.0298248
0.00469168
0.0249212
0.0049036
0.0197717
0.00514947
0.0143454
0.00542634
0.00870034
0.00564505
0.00332613
0.0053742
0.00332613
0.0432848
0.00839537
-0.0474911
0.0389348
0.00868719
0.0344219
0.0090183
0.0297277
0.00938584
0.0248267
0.00980463
0.0196847
0.0102914
0.0142699
0.0108412
0.0086415
0.0112734
0.00330267
0.010713
0.0066288
0.0431186
0.0126329
-0.0473561
0.0387459
0.0130599
0.0342197
0.0135444
0.0295218
0.0140837
0.0246263
0.0147002
0.0194994
0.0154183
0.014111
0.0162295
0.00852525
0.0168592
0.00324369
0.0159946
0.00987249
0.0428269
0.0169057
-0.0470998
0.0384289
0.017458
0.0338896
0.0180837
0.0291913
0.0187821
0.0243085
0.0195829
0.0192081
0.0205187
0.0138627
0.021575
0.00834274
0.0223791
0.0031538
0.0211835
0.0130263
0.0423652
0.021208
-0.0466675
0.0379471
0.021876
0.0334013
0.0226296
0.0287121
0.0234712
0.0238547
0.0244404
0.0187966
0.0255768
0.0135141
0.0268575
0.00808777
0.0278054
0.00302907
0.0262422
0.0160554
0.0416971
0.0255243
-0.0460133
0.0372677
0.0263054
0.0327245
0.0271728
0.0280572
0.0281385
0.0232417
0.0292559
0.0182461
0.0305724
0.0130515
0.0320521
0.00775152
0.0331054
0.00286546
0.0311283
0.0189208
0.04076
0.0298542
-0.04509
0.0363295
0.0307359
0.0318079
0.0316944
0.0271866
0.0327598
0.0224383
0.0340043
0.0175321
0.0354786
0.0124569
0.0371274
0.00732295
0.0382393
0.00265868
0.0357926
0.0215795
0.0396025
0.0341839
-0.0439323
0.0351596
0.0351788
0.030671
0.036183
0.0261141
0.0373167
0.0214504
0.0386679
0.0166538
0.0402752
0.0117254
0.0420558
0.00679731
0.0431674
0.00240828
0.0401816
0.0239878
0.0378536
0.0386319
-0.0423016
0.0334403
0.0395921
0.0290839
0.0405393
0.0246757
0.041725
0.0201691
0.0431745
0.0155469
0.0448974
0.0108229
0.0467798
0.00615799
0.0478323
0.00211185
0.0442277
0.0260996
0.0360991
-0.0410231
0.0317599
0.027443
0.0230867
0.0186961
0.0142491
0.00975664
0.00540179
0.00175735
0.0521631
-0.00022601
0.0523891
-0.000226008
0.052607
-0.000217865
0.0528109
-0.000203961
0.0529954
-0.000184482
0.0531549
-0.000159537
0.0532837
-0.000128765
0.0533752
-9.15232e-05
0.0534224
-4.71533e-05
0.0534173
5.11973e-06
0.0533476
6.96263e-05
0.0532051
0.000142501
0.052979
0.000226169
0.0526553
0.000323712
0.0522181
0.000437125
0.0516491
0.000569048
0.0509268
0.000722238
0.0500249
0.000901968
0.0489183
0.00110661
0.00137012
0.0524142
-0.00044229
0.0526287
-0.000440476
0.0528333
-0.00042252
0.0530234
-0.000393998
0.0531937
-0.000354838
0.053339
-0.000304812
0.0534533
-0.000243096
0.0535303
-0.000168478
0.0535629
-7.97946e-05
0.053542
2.60877e-05
0.0534566
0.000155032
0.0532975
0.000301575
0.0530541
0.000469533
0.0527133
0.000664585
0.0522588
0.000891626
0.051672
0.00115584
0.0509316
0.00146257
0.0500107
0.00182292
0.0488847
0.00223257
0.00276376
0.0529091
-0.000630696
0.0530955
-0.000626956
0.0532721
-0.000599107
0.0534337
-0.000555597
0.0535752
-0.000496338
0.0536913
-0.00042088
0.0537761
-0.000327936
0.0538235
-0.000215837
0.0538265
-8.28392e-05
0.0537733
7.93367e-05
0.0536556
0.000272731
0.0534634
0.000493811
0.053185
0.000747921
0.0528087
0.00104083
0.0523188
0.00138156
0.051696
0.00177865
0.050919
0.0022395
0.0499598
0.00278214
0.0487956
0.00339677
0.00420328
0.0536259
-0.000775804
0.0537681
-0.000769105
0.0539
-0.000731021
0.0540166
-0.000672228
0.0541128
-0.000592486
0.054183
-0.000491102
0.0542214
-0.000366376
0.0542222
-0.000216592
0.05418
-4.07094e-05
0.0540763
0.000183072
0.0539085
0.000440526
0.0536657
0.000736583
0.0533356
0.00107807
0.0529044
0.00147205
0.052359
0.00192694
0.0516803
0.0024574
0.0508471
0.0030727
0.0498294
0.00379983
0.0486075
0.00461862
0.00571102
0.054536
-0.000859636
0.0546154
-0.000848568
0.0546843
-0.000799838
0.0547375
-0.000725461
0.05477
-0.000624981
0.0547763
-0.000497473
0.0547514
-0.000341405
0.0546889
-0.00015409
0.0545754
7.27802e-05
0.0544027
0.00035579
0.0541657
0.00067745
0.0538534
0.0010489
0.0534534
0.00147807
0.0529511
0.00197438
0.0523305
0.00254758
0.0515743
0.00321353
0.0506637
0.00398331
0.0495661
0.00489745
0.0482661
0.00591859
0.0073096
0.0556043
-0.000861865
0.0556003
-0.00084465
0.0555855
-0.000785037
0.0555549
-0.000694834
0.0555031
-0.00057318
0.0554246
-0.00041894
0.0553134
-0.000230222
0.0551728
-1.34921e-05
0.0549616
0.000283994
0.0546998
0.000617534
0.0543733
0.00100397
0.0539705
0.00145168
0.0534796
0.00196902
0.052886
0.00256799
0.0521743
0.00325929
0.0513232
0.00406462
0.0503159
0.00499058
0.0491178
0.0060956
0.0477212
0.00731522
0.00901749
0.0567933
-0.000759572
0.0566829
-0.00073431
0.0565619
-0.000664026
0.0564254
-0.000558258
0.0562673
-0.000415123
0.0560835
-0.00023519
0.0558796
-2.63162e-05
0.0556005
0.000265605
0.0552849
0.000599681
0.0549133
0.000989131
0.0544754
0.00144179
0.0539605
0.00196666
0.0533566
0.00257291
0.052649
0.00327552
0.0518239
0.00408442
0.0508585
0.00503001
0.0497395
0.00610959
0.0484206
0.00741449
0.0469153
0.00882049
0.0108428
0.0580639
-0.00052946
0.0578248
-0.000495184
0.0575748
-0.000414015
0.0573085
-0.00029204
0.0570265
-0.000133084
0.0567206
7.0761e-05
0.0563499
0.000344302
0.0559499
0.000665638
0.0555028
0.00104676
0.054998
0.00149397
0.0544257
0.00201406
0.0537749
0.00261746
0.0530345
0.00331335
0.0521897
0.00412032
0.0512295
0.00504464
0.0501304
0.00612909
0.04889
0.00734998
0.0474542
0.00885033
0.0458634
0.0104113
0.012774
0.0593836
-0.000142644
0.058987
-9.85935e-05
0.0585937
-2.06501e-05
0.0581785
0.000123129
0.057732
0.00031345
0.0572475
0.00055527
0.0567366
0.000855133
0.0561844
0.00121787
0.0555821
0.0016491
0.0549204
0.0021556
0.0541899
0.00274458
0.0533794
0.00342798
0.0524784
0.00421436
0.0514717
0.00512702
0.0503504
0.00616598
0.0490866
0.00739281
0.0476885
0.00874809
0.046082
0.0104568
0.0443758
0.0121175
0.0148481
0.0607675
0.000437303
0.060186
0.000482971
0.0595854
0.000579933
0.058976
0.000732531
0.0583482
0.000941268
0.0576941
0.00120931
0.0570066
0.00154261
0.0562775
0.001947
0.0554988
0.00242787
0.0546617
0.00299269
0.0537572
0.00364902
0.0527753
0.00440987
0.0517077
0.00528195
0.0505428
0.00629199
0.0492805
0.0074282
0.0479011
0.00877229
0.0464464
0.0102027
0.0448168
0.0120864
0.043242
0.0136924
0.0170671
0.0574365