/*--------------------------------*- C++ -*----------------------------------*\
| =========                 |                                                 |
| \\      /  F ield         | OpenFOAM: The Open Source CFD Toolbox           |
|  \\    /   O peration     | Version:  4.1                                   |
|   \\  /    A nd           | Web:      www.OpenFOAM.org                      |
|    \\/     M anipulation  |                                                 |
\*---------------------------------------------------------------------------*/
FoamFile
{
    version     2.0;
    format      ascii;
    class       volVectorField;
    location    "3.2";
    object      U;
}
// * * * * * * * * * * * * * * * * * * * * * * * * * * * * * * * * * * * * * //

dimensions      [0 1 -1 0 0 0 0];

internalField   nonuniform List<vector> 
2000
(
(0.026341 -0.0171961 -7.22367e-22)
(0.134133 -0.0769936 0)
(0.27592 -0.132321 -6.09383e-21)
(0.421769 -0.178819 -4.5059e-21)
(0.553308 -0.213164 8.56545e-21)
(0.660861 -0.234968 1.80864e-20)
(0.741764 -0.245933 -5.23585e-21)
(0.798025 -0.248452 0)
(0.834268 -0.244403 8.11009e-21)
(0.850561 -0.242574 0)
(0.0419053 -0.0248048 4.31074e-22)
(0.180237 -0.0902451 -1.39885e-21)
(0.347803 -0.142992 3.02775e-21)
(0.509839 -0.182806 8.72862e-21)
(0.64694 -0.208979 -2.87457e-22)
(0.751506 -0.222899 -6.25866e-21)
(0.824145 -0.227296 6.08732e-21)
(0.869926 -0.2249 7.77584e-21)
(0.895339 -0.218053 -8.11011e-21)
(0.903324 -0.214411 -1.8617e-20)
(0.0613127 -0.0316685 3.94502e-22)
(0.233916 -0.0998144 -3.69524e-22)
(0.426539 -0.146861 -1.60118e-21)
(0.600633 -0.177832 -4.13857e-22)
(0.737862 -0.195051 -4.18333e-21)
(0.834589 -0.201511 -5.54668e-21)
(0.895641 -0.200594 -6.76917e-21)
(0.929209 -0.195089 -7.7759e-21)
(0.943458 -0.18734 -9.17101e-21)
(0.943576 -0.182398 9.75018e-21)
(0.0846434 -0.037062 -4.08464e-22)
(0.294257 -0.104039 -9.43408e-22)
(0.509534 -0.142297 0)
(0.69036 -0.163055 -3.489e-21)
(0.822211 -0.17156 3.12391e-21)
(0.907131 -0.17184 0)
(0.954642 -0.167308 0)
(0.975766 -0.160296 0)
(0.979868 -0.152607 9.17118e-21)
(0.972968 -0.147554 -2.05773e-20)
(0.111737 -0.0401958 3.65633e-21)
(0.359655 -0.101391 -3.16512e-22)
(0.593531 -0.128226 1.08889e-23)
(0.775179 -0.138423 -1.03425e-21)
(0.896791 -0.139421 -2.45385e-21)
(0.967254 -0.135426 -3.54007e-21)
(1.00065 -0.129253 0)
(1.01015 -0.122452 -5.06732e-21)
(1.00566 -0.116182 2.76829e-20)
(0.993428 -0.111993 -3.75355e-20)
(0.142137 -0.0402636 -6.32748e-21)
(0.427853 -0.0906614 6.23147e-22)
(0.674969 -0.10426 6.67137e-22)
(0.85167 -0.104616 -1.84943e-21)
(0.959373 -0.100029 9.09889e-21)
(1.01419 -0.0939307 -2.69857e-21)
(1.03409 -0.087996 0)
(1.03356 -0.0827984 5.06746e-21)
(1.02235 -0.0787633 -5.52944e-21)
(1.00624 -0.0761362 -2.63684e-20)
(0.175061 -0.0365138 0)
(0.496098 -0.071129 0)
(0.750388 -0.0707452 9.7793e-22)
(0.917158 -0.0628893 -9.10439e-22)
(1.00872 -0.0550466 3.94304e-21)
(1.04804 -0.0490056 -3.70197e-21)
(1.05594 -0.0449532 -1.1754e-20)
(1.04732 -0.0424608 1.11101e-20)
(1.03126 -0.0412639 1.36785e-20)
(1.01261 -0.0406816 -6.52459e-21)
(0.209402 -0.0283354 1.06905e-21)
(0.561387 -0.0426941 0)
(0.816756 -0.0286855 1.06353e-21)
(0.969828 -0.0148684 -4.70761e-21)
(1.04445 -0.00619086 5.28644e-21)
(1.06944 -0.00213011 0)
(1.06736 -0.00124142 0)
(1.05268 -0.00219047 0)
(1.03342 -0.00413223 1.53163e-20)
(1.01335 -0.00592993 -1.45579e-20)
(0.243786 -0.015347 -7.63364e-22)
(0.620774 -0.00592153 -2.77689e-22)
(0.871669 0.020394 4.74114e-22)
(1.00868 0.0376351 -9.5835e-22)
(1.06679 0.0448764 -7.15327e-22)
(1.07935 0.045387 -2.7158e-21)
(1.06948 0.0422013 0)
(1.05067 0.0373736 2.09295e-21)
(1.02962 0.0321699 1.07806e-20)
(1.00903 0.027752 -8.16424e-21)
(0.276665 0.00251909 0)
(0.671647 0.038033 -8.64348e-24)
(0.91345 0.0746327 0)
(1.03338 0.0927529 2.73046e-22)
(1.07637 0.0966075 2.71046e-22)
(1.07877 0.0924031 1.64768e-21)
(1.06333 0.0845781 0)
(1.04209 0.0756751 -2.09303e-21)
(1.02047 0.0672039 -2.1905e-21)
(1.00017 0.0600254 -2.44112e-21)
(-0.00393062 0.00255864 0)
(-0.00941741 0.00166436 1.4848e-21)
(-0.00958218 -0.00186687 0)
(-0.0011155 -0.00642874 2.10628e-21)
(0.0156479 -0.0112354 6.98314e-22)
(0.0393832 -0.0158654 -1.41778e-21)
(0.0686421 -0.0200494 1.33515e-21)
(0.101935 -0.0236112 -1.34736e-21)
(0.137854 -0.0263879 2.6868e-23)
(0.174996 -0.0280334 -1.28453e-21)
(-0.00438973 0.00734199 4.57195e-21)
(-0.00859364 0.00444795 -2.92655e-21)
(-0.00613524 -0.00611589 2.73412e-21)
(0.0054277 -0.0196433 -1.37821e-21)
(0.0253846 -0.0338775 -6.79869e-21)
(0.0521776 -0.0475258 2.61411e-21)
(0.0841964 -0.0597978 0)
(0.119815 -0.0701905 1.34286e-21)
(0.1576 -0.0782454 1.32118e-21)
(0.196281 -0.0829652 0)
(-0.0051609 0.0111501 -3.02092e-21)
(-0.00671909 0.00566378 0)
(0.000991855 -0.0118263 -8.22299e-21)
(0.0186769 -0.033935 1.05041e-20)
(0.0448955 -0.0570253 -2.3947e-21)
(0.0776747 -0.0789678 0)
(0.115033 -0.0985008 0)
(0.155084 -0.114855 0)
(0.196328 -0.12737 -1.032e-20)
(0.23784 -0.134506 9.80871e-21)
(-0.00594254 0.0134673 0)
(-0.00331002 0.00448157 5.33366e-21)
(0.0122123 -0.0197984 -1.01044e-20)
(0.0389189 -0.0498903 4.80704e-21)
(0.0742977 -0.0808909 -5.0579e-21)
(0.115686 -0.109953 1.48604e-20)
(0.160568 -0.13541 5.72181e-22)
(0.206694 -0.156321 -9.5457e-21)
(0.252444 -0.171972 -9.91532e-21)
(0.297581 -0.180426 1.4121e-20)
(-0.00632266 0.0139536 -5.34955e-21)
(0.00230928 0.000295697 9.28167e-21)
(0.0281743 -0.0305927 -3.56589e-22)
(0.0666426 -0.0678087 9.01529e-23)
(0.113758 -0.105442 -5.05868e-21)
(0.165896 -0.140039 1.32164e-20)
(0.219854 -0.169633 0)
(0.272965 -0.193249 4.48598e-21)
(0.323453 -0.210321 -4.50434e-21)
(0.372217 -0.218616 1.82201e-20)
(-0.00584529 0.0124829 -2.01483e-22)
(0.0109919 -0.00713241 -8.75116e-21)
(0.0497691 -0.0443647 -4.40536e-21)
(0.102514 -0.0876313 -3.46481e-21)
(0.163486 -0.130295 -4.34542e-21)
(0.22782 -0.168469 -4.38729e-21)
(0.291512 -0.200062 0)
(0.351518 -0.22424 -4.48583e-21)
(0.405977 -0.240813 -1.35016e-20)
(0.457341 -0.24728 4.00616e-21)
(-0.00402498 0.00913962 1.23425e-22)
(0.023685 -0.0176606 -3.61614e-21)
(0.0780102 -0.0608434 0)
(0.147286 -0.108827 8.59226e-21)
(0.223615 -0.154592 -7.17364e-21)
(0.300663 -0.194082 0)
(0.373618 -0.225336 0)
(0.43925 -0.247884 0)
(0.495893 -0.262103 8.1462e-21)
(0.547707 -0.265193 1.72265e-20)
(-0.000372564 0.00413691 3.18728e-21)
(0.0414104 -0.0308378 -2.98557e-21)
(0.113978 -0.0792898 -5.75389e-21)
(0.201635 -0.130324 9.31197e-22)
(0.293955 -0.176948 -6.28513e-21)
(0.383047 -0.215311 -6.70311e-21)
(0.463503 -0.243918 -7.14506e-21)
(0.532316 -0.262915 -7.54586e-21)
(0.588578 -0.27326 -8.14597e-21)
(0.637743 -0.271993 8.32103e-21)
(0.00560021 -0.00220895 6.28872e-21)
(0.0651731 -0.0458783 2.99313e-21)
(0.158635 -0.0984871 1.10427e-20)
(0.265877 -0.150516 5.834e-21)
(0.373665 -0.195517 7.2126e-22)
(0.472721 -0.230317 7.40566e-21)
(0.55758 -0.254267 -6.10614e-21)
(0.62613 -0.268318 7.54567e-21)
(0.679062 -0.27375 -7.76518e-21)
(0.721954 -0.268495 1.61372e-20)
(0.0143637 -0.00948137 -3.80912e-21)
(0.0958663 -0.0617013 0)
(0.212604 -0.116804 -4.66345e-21)
(0.339675 -0.167396 4.18775e-23)
(0.461016 -0.208225 8.06562e-22)
(0.566565 -0.237301 -6.7939e-21)
(0.651663 -0.255121 1.89896e-20)
(0.71589 -0.263447 0)
(0.762156 -0.263603 7.76507e-21)
(0.794473 -0.257428 0)
(0.210478 -0.0276057 0)
(0.245137 -0.0268019 1.28872e-21)
(0.278756 -0.0258451 -2.57512e-21)
(0.311327 -0.0247079 1.12756e-21)
(0.342592 -0.023389 0)
(0.372273 -0.0219354 -1.18352e-21)
(0.40018 -0.0204018 1.18939e-21)
(0.426206 -0.0188341 0)
(0.450305 -0.01727 0)
(0.472473 -0.015741 -1.20997e-22)
(0.492746 -0.0142727 0)
(0.511194 -0.0128843 0)
(0.527909 -0.0115889 0)
(0.543004 -0.0103941 0)
(0.556596 -0.00930323 1.24167e-22)
(0.568823 -0.00831583 -1.24811e-22)
(0.579753 -0.00742924 0)
(0.589752 -0.00663537 2.59023e-23)
(0.597978 -0.00595084 -2.60386e-23)
(0.608499 -0.0052361 0)
(0.231368 -0.081593 0)
(0.264493 -0.0792401 -3.14539e-22)
(0.296325 -0.0764436 0)
(0.327257 -0.0730883 -4.82897e-21)
(0.356994 -0.0691863 4.70281e-21)
(0.385207 -0.0648865 -2.98564e-22)
(0.411714 -0.0603514 2.24536e-21)
(0.43643 -0.0557152 -4.65483e-21)
(0.459322 -0.0510888 3.86911e-21)
(0.480387 -0.046566 -2.12043e-21)
(0.499664 -0.0422228 -1.68769e-21)
(0.517218 -0.0381161 3.01653e-21)
(0.533138 -0.0342848 -1.52926e-21)
(0.547532 -0.0307516 -7.43302e-22)
(0.560509 -0.027526 5.8808e-22)
(0.572201 -0.0246064 -1.12003e-22)
(0.582664 -0.0219857 -8.81698e-23)
(0.592262 -0.019636 -1.02769e-22)
(0.600136 -0.0176194 1.03267e-22)
(0.610285 -0.0154814 -1.43335e-23)
(0.271854 -0.131962 3.01592e-22)
(0.301947 -0.128221 3.15077e-22)
(0.330317 -0.12379 3.08651e-22)
(0.358061 -0.11838 0)
(0.384814 -0.112057 5.41808e-21)
(0.410163 -0.105093 -4.23377e-21)
(0.433945 -0.0977517 0)
(0.456119 -0.0902454 5.43815e-22)
(0.47667 -0.082753 2.56984e-22)
(0.495603 -0.0754277 -3.18804e-21)
(0.512954 -0.0683938 3.25726e-22)
(0.528785 -0.0617442 3.76829e-21)
(0.543176 -0.0555419 1.7889e-22)
(0.556223 -0.0498236 1.57002e-22)
(0.56802 -0.0446043 1.34421e-22)
(0.578685 -0.0398807 -2.85316e-22)
(0.588257 -0.0356423 2.71948e-22)
(0.597082 -0.0318369 3.02243e-22)
(0.60431 -0.0285867 6.50188e-23)
(0.613721 -0.0250898 1.95643e-24)
(0.32942 -0.176483 9.25287e-21)
(0.355061 -0.171627 1.02007e-22)
(0.378502 -0.16588 -2.8865e-22)
(0.401679 -0.158689 -9.76907e-21)
(0.42414 -0.150226 -8.97235e-22)
(0.445375 -0.140906 -2.94454e-22)
(0.46526 -0.131083 8.24266e-21)
(0.483811 -0.121033 -4.92265e-21)
(0.501036 -0.110995 -4.18894e-21)
(0.516946 -0.101178 3.86979e-21)
(0.531575 -0.0917516 -3.1812e-22)
(0.544976 -0.0828414 -3.93173e-21)
(0.557218 -0.0745325 -1.77399e-22)
(0.568377 -0.0668741 -1.46437e-21)
(0.578525 -0.0598861 1.02338e-21)
(0.587759 -0.0535624 7.84775e-22)
(0.596091 -0.0478901 -7.00358e-22)
(0.603841 -0.0427898 0)
(0.610181 -0.0384535 -1.14151e-22)
(0.618558 -0.0337265 -1.3795e-23)
(0.400375 -0.213227 -1.8198e-20)
(0.420303 -0.207665 8.82386e-21)
(0.437662 -0.201043 -9.40986e-21)
(0.45516 -0.192459 0)
(0.472254 -0.18226 5.9446e-22)
(0.488358 -0.171019 9.04255e-21)
(0.503407 -0.159158 1.9267e-22)
(0.517478 -0.147001 -4.46039e-22)
(0.530605 -0.134845 -8.27153e-21)
(0.542803 -0.12295 -4.69432e-22)
(0.554102 -0.111525 0)
(0.564545 -0.100725 3.92709e-22)
(0.574179 -0.0906541 0)
(0.583056 -0.0813735 3.07585e-22)
(0.591221 -0.0729064 0)
(0.598737 -0.0652435 0)
(0.605587 -0.0583714 -1.70308e-22)
(0.61205 -0.0521788 1.97663e-22)
(0.617338 -0.0469438 -1.74022e-22)
(0.624473 -0.0411407 5.02226e-23)
(0.480116 -0.240708 0)
(0.493321 -0.235003 5.73727e-22)
(0.503868 -0.228039 1.85502e-20)
(0.51495 -0.218559 -1.79735e-20)
(0.525921 -0.207148 5.72909e-22)
(0.536181 -0.194531 0)
(0.545747 -0.181172 8.58223e-21)
(0.554757 -0.167436 -1.6225e-20)
(0.563272 -0.153673 8.66156e-21)
(0.571313 -0.140189 4.63511e-22)
(0.578904 -0.127229 4.27866e-22)
(0.586071 -0.114974 3.89267e-22)
(0.592834 -0.103544 0)
(0.599212 -0.0930088 -1.95211e-21)
(0.605212 -0.0833957 4.41581e-21)
(0.610862 -0.0746917 -1.89745e-21)
(0.616109 -0.0668857 1.68722e-22)
(0.621178 -0.0598285 1.21491e-22)
(0.625338 -0.0539035 -4.94895e-23)
(0.631121 -0.0471975 4.89175e-23)
(0.563563 -0.258035 -1.69626e-20)
(0.569447 -0.252858 0)
(0.572955 -0.246125 5.5973e-22)
(0.577307 -0.236313 -1.14497e-21)
(0.581756 -0.224309 -1.13877e-21)
(0.585792 -0.21095 -5.56296e-22)
(0.589545 -0.196715 -5.40589e-22)
(0.593217 -0.182007 7.57161e-21)
(0.596892 -0.16722 -9.05886e-21)
(0.600601 -0.152701 -7.98784e-21)
(0.604355 -0.138721 6.63074e-21)
(0.608156 -0.125482 -7.70364e-22)
(0.611989 -0.11312 2.58256e-21)
(0.61583 -0.101716 -6.42989e-22)
(0.619644 -0.0913029 -2.74373e-21)
(0.623415 -0.0818641 -2.12847e-22)
(0.627055 -0.0733966 2.38114e-22)
(0.630721 -0.0657066 -3.05126e-22)
(0.633766 -0.0593034 -4.52862e-22)
(0.63818 -0.0518742 -2.45088e-23)
(0.645827 -0.265167 0)
(0.644401 -0.261326 1.76057e-20)
(0.641115 -0.255416 -1.80909e-20)
(0.638755 -0.245881 5.69534e-22)
(0.636561 -0.233903 1.12767e-21)
(0.634276 -0.220407 5.55791e-22)
(0.632191 -0.205903 1.07665e-21)
(0.630558 -0.190838 0)
(0.629478 -0.17564 4.87783e-22)
(0.628972 -0.160669 4.55339e-22)
(0.629029 -0.146208 4.22827e-22)
(0.629609 -0.132471 7.64949e-22)
(0.630651 -0.119611 0)
(0.632084 -0.107719 0)
(0.633827 -0.0968377 2.5278e-22)
(0.63582 -0.086952 1.91063e-21)
(0.63794 -0.078075 -1.32321e-21)
(0.640276 -0.069963 1.18013e-22)
(0.642277 -0.0632703 2.35219e-22)
(0.645383 -0.0552772 -6.91233e-23)
(0.722858 -0.263936 -1.68192e-20)
(0.714843 -0.262421 0)
(0.705213 -0.257592 0)
(0.696308 -0.248639 1.8054e-20)
(0.687618 -0.237046 -6.13126e-22)
(0.679221 -0.2238 -3.52229e-20)
(0.671576 -0.20946 1.68158e-20)
(0.664975 -0.194511 0)
(0.659512 -0.179383 0)
(0.655177 -0.164426 0)
(0.651905 -0.149927 -2.05915e-22)
(0.649602 -0.136106 -5.70203e-22)
(0.648152 -0.123129 -5.10606e-21)
(0.647435 -0.111097 4.92127e-21)
(0.647325 -0.100063 -1.84442e-21)
(0.647718 -0.0900119 1.62646e-21)
(0.648468 -0.0809798 0)
(0.649594 -0.0726676 -5.59424e-23)
(0.650662 -0.0658883 -6.86007e-23)
(0.652595 -0.0575261 0)
(0.792347 -0.256855 2.6394e-22)
(0.779075 -0.256032 1.79293e-20)
(0.763177 -0.251239 -1.77422e-20)
(0.747689 -0.243045 0)
(0.732917 -0.232637 -1.80637e-20)
(0.719075 -0.220642 3.54933e-20)
(0.706579 -0.207461 -1.74357e-20)
(0.695682 -0.193499 0)
(0.686444 -0.179142 -7.58697e-21)
(0.678809 -0.16474 1.45465e-20)
(0.672661 -0.150606 -7.17379e-21)
(0.667857 -0.137004 1.88628e-22)
(0.664237 -0.124141 0)
(0.66164 -0.112158 4.5437e-21)
(0.659904 -0.101141 -6.19415e-21)
(0.658883 -0.0910908 1.82126e-21)
(0.658418 -0.0820797 1.10521e-21)
(0.65846 -0.0737524 -7.83448e-22)
(0.658699 -0.0670915 -3.64714e-22)
(0.659668 -0.0586658 0)
(0.856997 -0.230857 0)
(0.834481 -0.232044 0)
(0.810304 -0.230191 0)
(0.78827 -0.226199 0)
(0.768637 -0.220033 0)
(0.750971 -0.21175 0)
(0.73517 -0.20172 0)
(0.721304 -0.190378 0)
(0.709382 -0.178124 0)
(0.699317 -0.165337 0)
(0.690972 -0.152378 0)
(0.684184 -0.139574 0)
(0.678781 -0.127192 0)
(0.674583 -0.115432 0)
(0.671416 -0.104433 0)
(0.669111 -0.0942295 0)
(0.667516 -0.0849465 0)
(0.666505 -0.0762054 0)
(0.665938 -0.0691436 0)
(0.665845 -0.0600592 0)
(0.873449 -0.206013 0)
(0.852241 -0.20851 0)
(0.828454 -0.207939 0)
(0.806438 -0.205005 0)
(0.786839 -0.199949 0)
(0.769074 -0.192999 0)
(0.752918 -0.184512 0)
(0.738467 -0.174863 0)
(0.725786 -0.16439 0)
(0.714833 -0.153409 0)
(0.705507 -0.142216 0)
(0.697684 -0.13108 0)
(0.691225 -0.120231 0)
(0.685978 -0.109844 0)
(0.681791 -0.100046 0)
(0.678502 -0.0908722 0)
(0.675999 -0.08246 0)
(0.674077 -0.0744336 0)
(0.672818 -0.0679597 0)
(0.671562 -0.0594268 0)
(0.881893 -0.181705 0)
(0.861848 -0.185424 0)
(0.839181 -0.186286 0)
(0.817938 -0.184726 0)
(0.798899 -0.181152 0)
(0.781537 -0.175846 0)
(0.765604 -0.169078 0)
(0.751188 -0.161143 0)
(0.738371 -0.152338 0)
(0.727132 -0.142949 0)
(0.717389 -0.133248 0)
(0.709044 -0.123486 0)
(0.70198 -0.113881 0)
(0.696069 -0.1046 0)
(0.691185 -0.0957748 0)
(0.687173 -0.087442 0)
(0.683967 -0.0797519 0)
(0.681292 -0.0723365 0)
(0.679452 -0.0663562 0)
(0.677227 -0.0583012 0)
(0.884205 -0.159489 0)
(0.865775 -0.164052 0)
(0.844794 -0.166007 0)
(0.82489 -0.165627 0)
(0.806858 -0.163338 0)
(0.79028 -0.159431 0)
(0.774937 -0.154139 0)
(0.760908 -0.147706 0)
(0.748287 -0.140393 0)
(0.737076 -0.132455 0)
(0.727221 -0.124135 0)
(0.718641 -0.115659 0)
(0.711247 -0.107227 0)
(0.704927 -0.0989972 0)
(0.699577 -0.0910988 0)
(0.695049 -0.0835716 0)
(0.691321 -0.0765727 0)
(0.688055 -0.0697467 0)
(0.685759 -0.0642295 0)
(0.682746 -0.0566449 0)
(0.88248 -0.139552 0)
(0.865896 -0.144601 0)
(0.846895 -0.147293 0)
(0.828639 -0.147817 0)
(0.811891 -0.146561 0)
(0.796341 -0.143805 0)
(0.781816 -0.139753 0)
(0.768399 -0.134613 0)
(0.756191 -0.128606 0)
(0.745214 -0.121958 0)
(0.73544 -0.114882 0)
(0.726811 -0.10758 0)
(0.719261 -0.100233 0)
(0.712696 -0.0929861 0)
(0.707037 -0.0859643 0)
(0.702141 -0.0792083 0)
(0.698026 -0.0728782 0)
(0.694301 -0.0666343 0)
(0.691654 -0.0615763 0)
(0.687993 -0.054495 0)
(0.878504 -0.12197 0)
(0.863759 -0.127187 0)
(0.846779 -0.130317 0)
(0.830249 -0.131484 0)
(0.814881 -0.131027 0)
(0.80046 -0.129196 0)
(0.786867 -0.126167 0)
(0.774184 -0.122114 0)
(0.762519 -0.117228 0)
(0.751908 -0.111702 0)
(0.742345 -0.105725 0)
(0.733794 -0.099473 0)
(0.726209 -0.0931074 0)
(0.719517 -0.0867614 0)
(0.71366 -0.0805519 0)
(0.708503 -0.0745191 0)
(0.704102 -0.068823 0)
(0.700021 -0.0631415 0)
(0.697101 -0.0585296 0)
(0.692914 -0.0519609 0)
(0.873556 -0.106576 0)
(0.860481 -0.111718 0)
(0.84539 -0.11505 0)
(0.830514 -0.116641 0)
(0.816498 -0.116773 0)
(0.803208 -0.11566 0)
(0.790566 -0.113453 0)
(0.778662 -0.110297 0)
(0.767599 -0.106354 0)
(0.757428 -0.10179 0)
(0.748156 -0.0967679 0)
(0.739767 -0.0914425 0)
(0.732233 -0.0859555 0)
(0.725499 -0.080426 0)
(0.719527 -0.0749623 0)
(0.714192 -0.0696022 0)
(0.709583 -0.0645022 0)
(0.705228 -0.0593593 0)
(0.702097 -0.055176 0)
(0.697489 -0.0491194 0)
(0.868401 -0.0930836 0)
(0.856763 -0.0979929 0)
(0.843351 -0.101355 0)
(0.829982 -0.103193 0)
(0.817221 -0.103737 0)
(0.804998 -0.103166 0)
(0.793274 -0.101605 0)
(0.782137 -0.0991773 0)
(0.771688 -0.0960176 0)
(0.761983 -0.0922682 0)
(0.753044 -0.088069 0)
(0.744869 -0.0835529 0)
(0.737445 -0.0788444 0)
(0.73073 -0.0740485 0)
(0.724707 -0.069264 0)
(0.719258 -0.0645253 0)
(0.714503 -0.0599827 0)
(0.70994 -0.055353 0)
(0.706651 -0.0515796 0)
(0.701708 -0.0460309 0)
(0.863436 -0.0811984 0)
(0.853003 -0.0857798 0)
(0.841043 -0.0890487 0)
(0.829004 -0.0909993 0)
(0.817372 -0.0918133 0)
(0.806124 -0.0916391 0)
(0.79525 -0.0905796 0)
(0.784836 -0.0887357 0)
(0.77498 -0.0862212 0)
(0.765742 -0.083156 0)
(0.757152 -0.0796595 0)
(0.749217 -0.0758457 0)
(0.741938 -0.0718225 0)
(0.735286 -0.0676817 0)
(0.72926 -0.0635123 0)
(0.723747 -0.0593447 0)
(0.718897 -0.055321 0)
(0.71418 -0.051178 0)
(0.710774 -0.0477951 0)
(0.705568 -0.0427473 0)
(0.85884 -0.0706524 0)
(0.84941 -0.0748529 0)
(0.838686 -0.0779462 0)
(0.8278 -0.0799086 0)
(0.817162 -0.0808826 0)
(0.806783 -0.0809884 0)
(0.796678 -0.0803098 0)
(0.78693 -0.0789296 0)
(0.777629 -0.0769424 0)
(0.768838 -0.0744488 0)
(0.760592 -0.0715499 0)
(0.752908 -0.068343 0)
(0.745796 -0.0649208 0)
(0.739236 -0.0613631 0)
(0.733239 -0.057749 0)
(0.727702 -0.0541048 0)
(0.722795 -0.0505627 0)
(0.71797 -0.0468803 0)
(0.714481 -0.0438683 0)
(0.709072 -0.0393122 0)
(0.854682 -0.0612152 0)
(0.846083 -0.0650094 0)
(0.836403 -0.0678733 0)
(0.826504 -0.0697743 0)
(0.81673 -0.0708234 0)
(0.807116 -0.0711165 0)
(0.797695 -0.0707212 0)
(0.788546 -0.069705 0)
(0.779754 -0.068146 0)
(0.771379 -0.0661281 0)
(0.763463 -0.0637363 0)
(0.756028 -0.0610529 0)
(0.74909 -0.0581574 0)
(0.742638 -0.0551181 0)
(0.736696 -0.0520049 0)
(0.731162 -0.0488398 0)
(0.72623 -0.0457443 0)
(0.721332 -0.0424969 0)
(0.717787 -0.0398368 0)
(0.712226 -0.0357617 0)
(0.850975 -0.0526962 0)
(0.843066 -0.0560746 0)
(0.834261 -0.0586749 0)
(0.825202 -0.0604616 0)
(0.81617 -0.0615205 0)
(0.807222 -0.0619277 0)
(0.798401 -0.0617371 0)
(0.789783 -0.0610031 0)
(0.781448 -0.0597899 0)
(0.773454 -0.0581669 0)
(0.765844 -0.056205 0)
(0.758647 -0.0539736 0)
(0.751884 -0.0515399 0)
(0.745549 -0.0489622 0)
(0.739676 -0.0463012 0)
(0.734166 -0.0435752 0)
(0.72923 -0.0408939 0)
(0.724288 -0.0380575 0)
(0.720709 -0.035731 0)
(0.715035 -0.0321254 0)
(0.847713 -0.0449365 0)
(0.840374 -0.0478987 0)
(0.832301 -0.0502142 0)
(0.823949 -0.0518485 0)
(0.81555 -0.0528677 0)
(0.807173 -0.0533314 0)
(0.798872 -0.0532822 0)
(0.790719 -0.0527639 0)
(0.782787 -0.0518285 0)
(0.775134 -0.0505331 0)
(0.767805 -0.0489363 0)
(0.760829 -0.0470959 0)
(0.754233 -0.0450684 0)
(0.748017 -0.0429029 0)
(0.74222 -0.0406514 0)
(0.736748 -0.0383289 0)
(0.731824 -0.0360327 0)
(0.726859 -0.033585 0)
(0.723261 -0.0315751 0)
(0.717508 -0.0284273 0)
(0.844882 -0.0378026 0)
(0.838014 -0.0403529 0)
(0.830546 -0.0423711 0)
(0.822785 -0.0438256 0)
(0.814918 -0.0447673 0)
(0.807026 -0.0452426 0)
(0.799169 -0.0452846 0)
(0.791416 -0.0449281 0)
(0.783835 -0.044215 0)
(0.776482 -0.0431916 0)
(0.769401 -0.0419059 0)
(0.762626 -0.0404055 0)
(0.756187 -0.0387371 0)
(0.750085 -0.0369416 0)
(0.744367 -0.0350627 0)
(0.73894 -0.0331125 0)
(0.734038 -0.0311753 0)
(0.729065 -0.0290964 0)
(0.72546 -0.0273875 0)
(0.719653 -0.0246861 0)
(0.84247 -0.0311797 0)
(0.835986 -0.0333249 0)
(0.829013 -0.0350388 0)
(0.821737 -0.0362942 0)
(0.814311 -0.03713 0)
(0.806823 -0.037582 0)
(0.799339 -0.0376755 0)
(0.791925 -0.0374379 0)
(0.784642 -0.0369023 0)
(0.777546 -0.0361058 0)
(0.770683 -0.035087 0)
(0.764085 -0.0338844 0)
(0.757786 -0.0325358 0)
(0.75179 -0.0310746 0)
(0.746147 -0.0295369 0)
(0.740767 -0.0279321 0)
(0.735893 -0.0263315 0)
(0.730923 -0.0246036 0)
(0.727319 -0.0231819 0)
(0.721477 -0.0209161 0)
(0.840465 -0.0249677 0)
(0.834287 -0.0267152 0)
(0.827711 -0.0281216 0)
(0.820826 -0.0291645 0)
(0.813756 -0.0298734 0)
(0.806598 -0.0302755 0)
(0.79942 -0.0303899 0)
(0.792284 -0.0302375 0)
(0.78525 -0.029844 0)
(0.77837 -0.0292383 0)
(0.77169 -0.0284507 0)
(0.765244 -0.0275115 0)
(0.759066 -0.0264506 0)
(0.753164 -0.0252943 0)
(0.74759 -0.0240716 0)
(0.742256 -0.0227895 0)
(0.737411 -0.0215064 0)
(0.732448 -0.0201142 0)
(0.72885 -0.0189677 0)
(0.722987 -0.017128 0)
(0.838853 -0.0190781 0)
(0.832913 -0.0204357 0)
(0.826646 -0.0215333 0)
(0.820066 -0.0223545 0)
(0.813277 -0.0229214 0)
(0.806378 -0.0232538 0)
(0.799442 -0.0233658 0)
(0.792529 -0.0232729 0)
(0.785693 -0.0229941 0)
(0.778987 -0.0225511 0)
(0.772456 -0.0219667 0)
(0.766134 -0.0212637 0)
(0.760057 -0.0204647 0)
(0.754234 -0.0195897 0)
(0.748719 -0.0186607 0)
(0.743425 -0.0176829 0)
(0.738606 -0.0167013 0)
(0.733655 -0.0156322 0)
(0.730064 -0.0147508 0)
(0.724188 -0.0133293 0)
(0.837623 -0.0134411 0)
(0.831862 -0.0144133 0)
(0.825826 -0.0152004 0)
(0.819473 -0.0157923 0)
(0.812893 -0.0162051 0)
(0.806188 -0.0164529 0)
(0.799434 -0.0165451 0)
(0.792687 -0.0164922 0)
(0.786001 -0.0163074 0)
(0.779426 -0.0160058 0)
(0.773008 -0.0156033 0)
(0.766781 -0.0151157 0)
(0.760782 -0.0145589 0)
(0.75502 -0.0139469 0)
(0.749551 -0.013295 0)
(0.74429 -0.0126071 0)
(0.739493 -0.0119144 0)
(0.734552 -0.011159 0)
(0.730968 -0.0105338 0)
(0.725086 -0.00952548 0)
(0.836779 -0.00797211 0)
(0.831146 -0.00856817 0)
(0.825268 -0.00904692 0)
(0.819068 -0.00940574 0)
(0.812628 -0.00965679 0)
(0.806052 -0.00980953 0)
(0.799418 -0.00986968 0)
(0.792783 -0.00984322 0)
(0.786197 -0.00973792 0)
(0.77971 -0.00956271 0)
(0.773367 -0.00932699 0)
(0.767204 -0.0090402 0)
(0.761258 -0.0087116 0)
(0.755537 -0.00834965 0)
(0.7501 -0.00796294 0)
(0.744862 -0.00755488 0)
(0.74008 -0.00714165 0)
(0.735148 -0.00669373 0)
(0.731566 -0.00631631 0)
(0.725683 -0.0057208 0)
(0.836335 -0.00256508 0)
(0.830784 -0.00280334 0)
(0.824993 -0.00298372 0)
(0.818872 -0.00311392 0)
(0.8125 -0.00320312 0)
(0.805987 -0.00325718 0)
(0.799412 -0.00327927 0)
(0.79283 -0.00327192 0)
(0.786294 -0.003238 0)
(0.77985 -0.00318067 0)
(0.773545 -0.0031031 0)
(0.767414 -0.00300848 0)
(0.761494 -0.00289985 0)
(0.755794 -0.0027801 0)
(0.750373 -0.00265188 0)
(0.745147 -0.00251679 0)
(0.740371 -0.00237909 0)
(0.735447 -0.00223145 0)
(0.731861 -0.00210365 0)
(0.725982 -0.00190935 0)
(0.981732 0.0531191 2.38491e-21)
(0.990127 0.0263843 0)
(0.994813 -0.00195599 -4.78037e-22)
(0.995379 -0.0317027 -1.46491e-20)
(0.99162 -0.0626145 2.54454e-20)
(0.98266 -0.094461 0)
(0.968651 -0.126755 2.15348e-20)
(0.945926 -0.159618 0)
(0.921238 -0.189741 1.9451e-20)
(0.871384 -0.224385 -3.10142e-22)
(0.964797 0.0466605 -2.62869e-21)
(0.972428 0.0234309 5.61953e-22)
(0.97686 -0.00114482 -5.6301e-22)
(0.97772 -0.0268853 -1.02533e-21)
(0.975419 -0.053565 -1.4072e-20)
(0.968462 -0.0811753 -8.70423e-22)
(0.959397 -0.108824 0)
(0.941029 -0.138493 -2.41522e-20)
(0.927807 -0.163019 0)
(0.887834 -0.200136 -2.15197e-20)
(0.950093 0.0405887 5.37619e-21)
(0.956693 0.0202433 0)
(0.960647 -0.00117113 -5.44997e-22)
(0.961446 -0.0235317 -3.52203e-22)
(0.960077 -0.0464877 1.49608e-20)
(0.954294 -0.0704783 0)
(0.948475 -0.0936805 2.66872e-20)
(0.933401 -0.120426 2.48499e-20)
(0.925371 -0.139905 0)
(0.895877 -0.175558 2.12988e-20)
(0.937514 0.0353624 -2.41252e-21)
(0.943139 0.017537 1.01416e-20)
(0.94656 -0.00110449 0)
(0.947139 -0.0205799 1.72015e-20)
(0.946233 -0.0403487 9.81886e-22)
(0.941192 -0.0613895 -1.89686e-21)
(0.936957 -0.0809732 -2.56637e-20)
(0.924586 -0.105063 -8.55001e-22)
(0.91814 -0.121054 -2.55956e-20)
(0.89708 -0.152935 0)
(0.926703 0.0308799 0)
(0.931508 0.0152419 -9.88108e-21)
(0.934407 -0.0010279 -1.13048e-20)
(0.934721 -0.0180746 1.70485e-21)
(0.933899 -0.0351791 -1.10799e-21)
(0.929388 -0.0537066 -9.58446e-22)
(0.925675 -0.0704248 -2.84264e-20)
(0.915597 -0.0917602 -1.73472e-21)
(0.909446 -0.105388 -4.36438e-22)
(0.894114 -0.132851 2.50174e-20)
(0.917308 0.0269832 2.99021e-21)
(0.921447 0.0132476 6.65166e-22)
(0.923873 -0.000989369 -1.56808e-21)
(0.92396 -0.0159522 6.18002e-22)
(0.923024 -0.0308257 -1.80297e-20)
(0.918956 -0.0471017 0)
(0.915298 -0.0615413 3.1147e-20)
(0.906997 -0.0801139 -9.3168e-22)
(0.900828 -0.0920935 5.41103e-20)
(0.88899 -0.115385 -5.06422e-20)
(0.909076 0.023564 -3.00493e-21)
(0.912673 0.0115049 -5.71851e-21)
(0.914692 -0.000962256 1.04285e-20)
(0.914613 -0.0140899 -1.87342e-20)
(0.913507 -0.0270718 -1.71777e-21)
(0.909809 -0.0413089 -1.73405e-20)
(0.906069 -0.0539223 9.65358e-22)
(0.898995 -0.0699396 -1.86555e-21)
(0.892834 -0.0806579 -2.65189e-20)
(0.883051 -0.100311 2.56182e-20)
(0.901839 0.0205456 0)
(0.904989 0.009978 1.22949e-20)
(0.906661 -0.000932357 -1.35592e-21)
(0.90646 -0.0124246 1.04154e-20)
(0.905192 -0.0237811 -4.67608e-22)
(0.90178 -0.0361877 3.40834e-20)
(0.897966 -0.0472858 -1.55782e-20)
(0.891697 -0.0610436 0)
(0.885642 -0.0706706 0)
(0.87709 -0.0872513 0)
(0.895478 0.0178683 0)
(0.898251 0.0086341 -1.11238e-20)
(0.899627 -0.000897268 -7.1557e-22)
(0.899324 -0.0109268 1.0249e-20)
(0.897923 -0.0208627 1.91142e-20)
(0.894719 -0.0316375 -1.89005e-20)
(0.890883 -0.0414172 1.87058e-20)
(0.885146 -0.053215 -1.0115e-21)
(0.879259 -0.0618337 0)
(0.871483 -0.0758487 1.38432e-20)
(0.889902 0.0154834 3.89863e-22)
(0.892351 0.00744604 6.33649e-21)
(0.893473 -0.000854445 9.97396e-21)
(0.893078 -0.00957254 -6.00055e-22)
(0.891575 -0.0182452 1.27349e-21)
(0.888515 -0.0275695 -1.97043e-20)
(0.8847 -0.0361634 1.94876e-20)
(0.879327 -0.0462712 -1.03081e-21)
(0.87362 -0.0539399 0)
(0.866377 -0.0658031 -2.77489e-20)
(0.885034 0.0133495 0)
(0.887203 0.00639181 6.17105e-21)
(0.888109 -0.000800829 1.48001e-22)
(0.887626 -0.00833901 0)
(0.886044 -0.015873 0)
(0.883082 -0.0239073 1.74461e-20)
(0.879307 -0.0314167 -1.61764e-20)
(0.874197 -0.0400605 -9.87067e-22)
(0.868656 -0.04683 5.1468e-22)
(0.861809 -0.0568676 1.43572e-20)
(0.880812 0.0114312 0)
(0.882739 0.00545255 -1.17033e-20)
(0.883461 -0.000734749 -1.3091e-20)
(0.882896 -0.00720618 2.03396e-21)
(0.881251 -0.0137036 -1.3165e-21)
(0.878354 -0.020585 -1.15667e-21)
(0.874622 -0.0270937 2.21788e-21)
(0.869708 -0.0344556 1.45409e-20)
(0.86431 -0.0403746 1.44953e-21)
(0.857769 -0.0488427 -4.56644e-22)
(0.877181 0.00969572 0)
(0.878901 0.00461209 6.28966e-21)
(0.879468 -0.000655342 -7.20615e-22)
(0.878827 -0.00615625 7.14634e-22)
(0.877131 -0.0117025 0)
(0.874277 -0.017545 0)
(0.870584 -0.0231257 0)
(0.865819 -0.0293509 -1.65281e-20)
(0.860535 -0.0344658 1.55427e-20)
(0.854236 -0.0415663 0)
(0.8741 0.00812697 0)
(0.875643 0.00385802 3.9855e-21)
(0.876079 -0.000562823 5.25612e-21)
(0.875371 -0.00517427 7.01207e-21)
(0.873631 -0.009841 -1.35002e-21)
(0.870806 -0.0147381 8.62548e-21)
(0.867144 -0.0194538 -7.94646e-21)
(0.862492 -0.0246578 0)
(0.857296 -0.0290112 6.63285e-22)
(0.851187 -0.0349036 -1.48903e-20)
(0.871511 0.00667212 -8.58812e-22)
(0.872915 0.0031706 -3.22316e-21)
(0.873251 -0.000460436 -6.7916e-21)
(0.872485 -0.00424835 -4.93087e-21)
(0.87071 -0.00809494 0)
(0.867902 -0.012122 -1.10086e-20)
(0.864264 -0.0160266 1.13795e-20)
(0.859697 -0.0203008 -1.08738e-21)
(0.854566 -0.0239304 -7.67905e-21)
(0.848602 -0.0287405 2.15151e-20)
(0.869418 0.00531205 8.63229e-22)
(0.870704 0.00253973 -2.47753e-21)
(0.87095 -0.000349311 2.28666e-21)
(0.870134 -0.00336716 -5.75567e-21)
(0.86833 -0.00644247 0)
(0.865534 -0.00965945 0)
(0.861912 -0.0127979 1.11847e-21)
(0.857407 -0.016214 -1.06476e-20)
(0.852321 -0.0191516 -6.77906e-21)
(0.846462 -0.0229775 -7.1543e-21)
(0.867781 0.00405216 0)
(0.868969 0.00195747 4.08992e-21)
(0.869145 -0.00023203 -1.53539e-21)
(0.868288 -0.002523 5.10778e-21)
(0.866462 -0.00486656 1.38547e-21)
(0.863672 -0.00732018 -1.21626e-21)
(0.860061 -0.00972807 2.31237e-21)
(0.855598 -0.0123404 7.3902e-21)
(0.85054 -0.0146115 0)
(0.844752 -0.0175272 0)
(0.866572 0.00285899 0)
(0.867684 0.00140956 1.66213e-21)
(0.867807 -0.000112726 -3.11313e-21)
(0.866921 -0.00171192 0)
(0.865078 -0.00335641 -2.71641e-21)
(0.862292 -0.00508353 -1.22244e-21)
(0.858686 -0.00678943 -3.45368e-21)
(0.854249 -0.00863921 -1.03681e-21)
(0.849203 -0.0102635 5.30401e-22)
(0.843455 -0.0123236 4.59942e-22)
(0.865767 0.00173477 0)
(0.866825 0.000906696 -1.67015e-21)
(0.866911 3.26965e-05 -1.55009e-21)
(0.866008 -0.000894581 2.1811e-21)
(0.864156 -0.00185877 1.32005e-21)
(0.861373 -0.00288214 1.26204e-21)
(0.857768 -0.00390488 5.7654e-21)
(0.853343 -0.0050229 -4.26657e-21)
(0.848298 -0.00601949 1.00277e-21)
(0.842564 -0.00727545 0)
(0.86534 0.000579239 0)
(0.86638 0.000384988 8.24624e-22)
(0.866452 0.000168574 -7.95714e-22)
(0.865542 -7.85437e-05 7.61216e-22)
(0.863686 -0.000354155 0)
(0.860904 -0.000668163 -1.26846e-21)
(0.857296 -0.00100271 1.13609e-21)
(0.852869 -0.00139248 1.03518e-21)
(0.847812 -0.00176603 0)
(0.842082 -0.00225644 0)
(0.722186 0.225978 0)
(0.714428 0.249408 -4.60333e-20)
(0.710549 0.277531 0)
(0.707407 0.31149 -1.51166e-19)
(0.703468 0.351427 5.67206e-20)
(0.697265 0.397267 1.41696e-21)
(0.683341 0.445006 5.12998e-20)
(0.6441 0.478188 -4.89084e-21)
(0.537032 0.450765 0)
(0.285876 0.254484 5.63409e-20)
(0.755004 0.22606 8.55934e-20)
(0.751932 0.252018 4.6032e-20)
(0.75377 0.279522 -4.43927e-20)
(0.755715 0.313077 5.07129e-20)
(0.757006 0.352654 -4.53977e-20)
(0.75638 0.397564 4.98824e-21)
(0.747272 0.443231 -5.26882e-20)