/*--------------------------------*- C++ -*----------------------------------*\
| =========                 |                                                 |
| \\      /  F ield         | OpenFOAM: The Open Source CFD Toolbox           |
|  \\    /   O peration     | Version:  4.1                                   |
|   \\  /    A nd           | Web:      www.OpenFOAM.org                      |
|    \\/     M anipulation  |                                                 |
\*---------------------------------------------------------------------------*/
FoamFile
{
    version     2.0;
    format      ascii;
    class       volScalarField;
    location    "5";
    object      p;
}
// * * * * * * * * * * * * * * * * * * * * * * * * * * * * * * * * * * * * * //

dimensions      [0 2 -2 0 0 0 0];

internalField   nonuniform List<scalar> 
3800
(
-0.552052
-0.546766
-0.537034
-0.527931
-0.52411
-0.527538
-0.5369
-0.55254
-0.566166
-0.583153
-0.554947
-0.550534
-0.541259
-0.532234
-0.52685
-0.526511
-0.530429
-0.536413
-0.541503
-0.546136
-0.563163
-0.558583
-0.549929
-0.540455
-0.532791
-0.527629
-0.524124
-0.521527
-0.518142
-0.514223
-0.576172
-0.570079
-0.560289
-0.549636
-0.538338
-0.527083
-0.51638
-0.506502
-0.496306
-0.488388
-0.593443
-0.584103
-0.572223
-0.558632
-0.541856
-0.523922
-0.506707
-0.490713
-0.476179
-0.464479
-0.615916
-0.600223
-0.586017
-0.566692
-0.542591
-0.517771
-0.494612
-0.473914
-0.455741
-0.440903
-0.644064
-0.619886
-0.600179
-0.572055
-0.53962
-0.508164
-0.479942
-0.455278
-0.434228
-0.416615
-0.674542
-0.644077
-0.612494
-0.5729
-0.532078
-0.494781
-0.462246
-0.434406
-0.410815
-0.390529
-0.699973
-0.667688
-0.620774
-0.568288
-0.519454
-0.477094
-0.441087
-0.410689
-0.384932
-0.36256
-0.717637
-0.68325
-0.621703
-0.557337
-0.501314
-0.454641
-0.415844
-0.383533
-0.356194
-0.332505
-0.44542
-0.463381
-0.488834
-0.522547
-0.561133
-0.601991
-0.64324
-0.683391
-0.720622
-0.752444
-0.460204
-0.476824
-0.501474
-0.534787
-0.573264
-0.614211
-0.655648
-0.696027
-0.733535
-0.765766
-0.484952
-0.498913
-0.521929
-0.55411
-0.591844
-0.632316
-0.6734
-0.713464
-0.751008
-0.784364
-0.51194
-0.522252
-0.542712
-0.572762
-0.608625
-0.647453
-0.687064
-0.725764
-0.762244
-0.796061
-0.534687
-0.540536
-0.557418
-0.584097
-0.616658
-0.652406
-0.689198
-0.725528
-0.760018
-0.791645
-0.549765
-0.550846
-0.562962
-0.584519
-0.61204
-0.643089
-0.675887
-0.708671
-0.741345
-0.769767
-0.557099
-0.553723
-0.559806
-0.574299
-0.594934
-0.619791
-0.647757
-0.676012
-0.706736
-0.731895
-0.558531
-0.552115
-0.551833
-0.557895
-0.570162
-0.58773
-0.61039
-0.634272
-0.663431
-0.686993
-0.556511
-0.549148
-0.543638
-0.541787
-0.545882
-0.55668
-0.57452
-0.596415
-0.625186
-0.648947
-0.553474
-0.546806
-0.538147
-0.53097
-0.529454
-0.535966
-0.549831
-0.570242
-0.594137
-0.619218
-0.787519
-0.81567
-0.827745
-0.82311
-0.805465
-0.775543
-0.734048
-0.680451
-0.614285
-0.535067
-0.443957
-0.344387
-0.24274
-0.146605
-0.0629266
0.004551
0.0528997
0.0845346
0.102452
0.110092
0.110618
0.10662
0.0999926
0.0920266
0.0835691
0.0751523
0.0670939
0.059571
0.0526692
0.0464168
0.0408063
0.0358091
0.0313842
0.0274842
0.0240595
0.0210607
0.0184406
0.0161547
0.014162
0.0124248
0.0109095
0.00958616
0.00842873
0.00741477
0.00652501
0.00574288
0.00505423
0.00444695
0.00391085
0.00343731
0.00301902
0.00264974
0.0023239
0.00203668
0.00178374
0.00156118
0.00136616
0.00119534
0.00104284
0.000908079
0.00078933
0.000685807
0.000595512
0.000516613
0.000447619
0.000387268
0.000334393
0.000288046
0.000247309
0.000211532
0.000179952
0.000152145
0.000127371
0.000105445
8.55156e-05
6.77329e-05
5.09458e-05
3.589e-05
2.07867e-05
7.74431e-06
-0.801694
-0.82885
-0.840516
-0.835679
-0.818019
-0.788734
-0.748738
-0.697529
-0.634228
-0.557829
-0.468583
-0.369211
-0.266259
-0.167766
-0.0806627
-0.00864645
0.0419386
0.0755856
0.0951841
0.104247
0.105951
0.102878
0.0969874
0.0896174
0.0816376
0.0735979
0.065835
0.0585432
0.0518224
0.045712
0.0402136
0.0353056
0.0309523
0.0271107
0.0237342
0.020776
0.0181905
0.0159347
0.0139683
0.0122542
0.0107594
0.00945412
0.0083128
0.00731321
0.00643623
0.00566542
0.00498673
0.00438819
0.00385973
0.0033929
0.0029805
0.00261633
0.002295
0.00201165
0.001762
0.00154232
0.00134943
0.00118017
0.0010295
0.000896924
0.000780016
0.000677849
0.00058864
0.000510669
0.000442472
0.000382806
0.00033052
0.000284687
0.000244398
0.000209016
0.000177789
0.000150305
0.00012582
0.000104162
8.44681e-05
6.6912e-05
5.03194e-05
3.54619e-05
2.05181e-05
7.66354e-06
-0.822635
-0.847854
-0.858572
-0.853515
-0.836018
-0.808032
-0.770596
-0.723414
-0.665133
-0.594228
-0.50981
-0.411996
-0.307748
-0.20445
-0.111254
-0.0358954
0.0195381
0.0570537
0.0798983
0.0917632
0.0959252
0.0948754
0.0905825
0.0844841
0.077524
0.0702965
0.0631731
0.0563816
0.0500522
0.044249
0.0389931
0.0342779
0.0300793
0.0263629
0.023089
0.0202159
0.0177022
0.0155074
0.0135935
0.0119251
0.0104701
0.00919995
0.00808965
0.00711756
0.00626494
0.00551565
0.0048559
0.00427404
0.00376025
0.00330631
0.00290523
0.00255097
0.00223825
0.00196235
0.00171908
0.00150482
0.00131637
0.00115049
0.00100321
0.000874981
0.000761647
0.000662129
0.000575047
0.000498885
0.000432239
0.000373909
0.000322786
0.000277974
0.000238588
0.000204005
0.000173493
0.00014665
0.000122746
0.00010161
8.23963e-05
6.52706e-05
4.90829e-05
3.45861e-05
1.99991e-05
7.45685e-06
-0.837663
-0.862607
-0.873197
-0.869123
-0.852723
-0.826749
-0.792409
-0.749701
-0.697118
-0.632831
-0.554726
-0.458642
-0.354874
-0.249424
-0.153024
-0.0731794
-0.0127085
0.0295485
0.0567396
0.0725443
0.0802354
0.0822956
0.0805363
0.0764369
0.0710638
0.0651042
0.0589893
0.0529936
0.0472895
0.0419778
0.0371101
0.0327036
0.0287523
0.0252358
0.022125
0.0193864
0.0169846
0.0148839
0.0130497
0.0114495
0.0100533
0.00883432
0.00776885
0.00683617
0.00601824
0.00529951
0.00466669
0.00410855
0.00361569
0.0031802
0.00279534
0.00245532
0.00215496
0.00188979
0.00165575
0.0014493
0.00126738
0.00110686
0.000965047
0.000843214
0.000734537
0.000638658
0.000554716
0.00048127
0.000416947
0.000360622
0.000311242
0.000267953
0.000229914
0.000196528
0.000167088
0.000141204
0.000118166
9.7805e-05
7.93032e-05
6.28144e-05
4.72313e-05
3.32666e-05
1.92201e-05
7.13375e-06
-0.835392
-0.864345
-0.877932
-0.877702
-0.864508
-0.841529
-0.810501
-0.77178
-0.72425
-0.665586
-0.592889
-0.504072
-0.403336
-0.298309
-0.200115
-0.116858
-0.0519588
-0.00484218
0.0272552
0.047718
0.059663
0.0655416
0.0670881
0.0656551
0.0623834
0.0580903
0.0533082
0.0483799
0.0435278
0.0388938
0.0345645
0.0305868
0.0269787
0.0237388
0.0208528
0.0182986
0.0160494
0.0140758
0.0123484
0.0108386
0.00951967
0.00836722
0.00735947
0.00647713
0.00570328
0.00502323
0.00442442
0.00389625
0.00342984
0.00301768
0.0026534
0.00233144
0.00204689
0.00179543
0.00157333
0.00137704
0.0012034
0.00105037
0.000915272
0.000802393
0.000699352
0.000607809
0.000527747
0.000457835
0.000396602
0.000342974
0.000295941
0.000254688
0.000218436
0.000186637
0.000158615
0.000133996
0.000112102
9.27643e-05
7.52041e-05
5.9556e-05
4.47734e-05
3.15122e-05
1.81851e-05
6.7022e-06
-0.810743
-0.846516
-0.868824
-0.875092
-0.86758
-0.849595
-0.823164
-0.788686
-0.74559
-0.692006
-0.625038
-0.542653
-0.447006
-0.345245
-0.247714
-0.162889
-0.0947146
-0.0431874
-0.00615343
0.019226
0.0357285
0.0457054
0.0509228
0.0526155
0.0518547
0.0495379
0.0463205
0.0426483
0.0388138
0.0350068
0.0313494
0.0279165
0.0247495
0.021867
0.0192717
0.0169549
0.0149008
0.0130886
0.0114957
0.0100988
0.00887545
0.00780468
0.00686723
0.00604577
0.00532488
0.00469111
0.00413291
0.00364048
0.00320558
0.00282124
0.00248149
0.00218109
0.00191548
0.00168061
0.00147288
0.00128925
0.00112663
0.000983481
0.000864522
0.00075145
0.000655624
0.000570323
0.000494879
0.000429019
0.000371431
0.000321068
0.000276923
0.000238204
0.000204184
0.000174364
0.000148107
0.000125058
0.000104582
8.65122e-05
7.01192e-05
5.55123e-05
4.17226e-05
2.93325e-05
1.68989e-05
6.16409e-06
-0.768044
-0.810678
-0.843503
-0.859547
-0.860083
-0.848816
-0.827744
-0.797769
-0.758644
-0.709095
-0.647076
-0.570878
-0.481805
-0.385692
-0.291581
-0.207506
-0.137674
-0.0827007
-0.0412248
-0.01114
0.00984783
0.0238918
0.0327662
0.0377701
0.0398288
0.0397885
0.0383592
0.036092
0.0333758
0.0304732
0.0275578
0.0247383
0.0220798
0.0196189
0.0173726
0.0153444
0.0135288
0.0119144
0.0104859
0.00922653
0.00811893
0.00714627
0.00629258
0.00554308
0.00488441
0.00430474
0.00379381
0.00334287
0.00294448
0.00259232
0.00228091
0.00200546
0.00176176
0.0015461
0.00135519
0.00118633
0.00103685
0.000904694
0.000789195
0.000688135
0.000600081
0.000524265
0.000455826
0.000395118
0.000341867
0.000295353
0.000254513
0.000218683
0.000187266
0.000159788
0.000135626
0.00011444
9.56465e-05
7.90808e-05
6.40719e-05
5.07012e-05
3.80916e-05
2.67375e-05
1.53652e-05
5.52063e-06
-0.720813
-0.7666
-0.806464
-0.831416
-0.841187
-0.83793
-0.823356
-0.798504
-0.7633
-0.716925
-0.658337
-0.587345
-0.505827
-0.417954
-0.330448
-0.249951
-0.180557
-0.123462
-0.0782463
-0.043746
-0.0183126
-0.000140371
0.0124259
0.0207389
0.0258207
0.028424
0.0291739
0.028641
0.0272797
0.025434
0.0233538
0.0212061
0.0190969
0.0170905
0.0152229
0.0135116
0.0119617
0.0105703
0.00932923
0.00822777
0.00725373
0.00639445
0.00563747
0.00497087
0.00438365
0.00386589
0.0034089
0.00300516
0.00264823
0.00233252
0.00205316
0.00180589
0.00158693
0.00139296
0.00122112
0.00106894
0.00093425
0.000815236
0.000710044
0.000617201
0.000537922
0.00046897
0.00040833
0.000354658
0.000307122
0.000265543
0.000228831
0.000196349
0.000167877
0.000143067
0.000121298
0.000102244
8.53757e-05
7.05327e-05
5.71099e-05
4.51594e-05
3.39064e-05
2.37498e-05
1.35992e-05
4.7829e-06
-0.682022
-0.724272
-0.764356
-0.795276
-0.812667
-0.81742
-0.80965
-0.790406
-0.759758
-0.71745
-0.663223
-0.597597
-0.523088
-0.444422
-0.365706
-0.291107
-0.224141
-0.16642
-0.118344
-0.0797647
-0.04985
-0.0272935
-0.0107111
0.00114049
0.00929995
0.0146207
0.0178053
0.0193775
0.0197665
0.0193297
0.0183656
0.0170983
0.0156873
0.0142397
0.0128235
0.0114801
0.0102323
0.00909072
0.00805763
0.00713039
0.00630317
0.00556836
0.00491745
0.00434173
0.0038328
0.00338287
0.00298498
0.00263296
0.00232144
0.00204567
0.00180145
0.00158507
0.00139324
0.00122311
0.00107225
0.000938506
0.000820078
0.000715321
0.000622802
0.000541294
0.000471013
0.00040954
0.000355895
0.000308545
0.0002674
0.000231027
0.000199061
0.000170783
0.00014588
0.000124164
0.000105131
8.85021e-05
7.38124e-05
6.09124e-05
4.92733e-05
3.89225e-05
2.91942e-05
2.03975e-05
1.16281e-05
3.98911e-06
-0.656008
-0.689274
-0.721261
-0.750171
-0.770431
-0.778113
-0.775093
-0.761056
-0.735346
-0.698012
-0.649559
-0.591064
-0.524605
-0.453683
-0.382124
-0.313439
-0.250615
-0.195412
-0.147931
-0.108374
-0.0764843
-0.051439
-0.0321911
-0.0177044
-0.00705052
0.000558243
0.00577334
0.00913775
0.0111152
0.0120788
0.012312
0.012048
0.0114693
0.010709
0.00985991
0.00898458
0.0081237
0.00730228
0.00653469
0.00582808
0.00518483
0.00460405
0.00408274
0.00361672
0.00320123
0.00283145
0.00250273
0.00221077
0.00195163
0.00172167
0.00151759
0.00133639
0.00117542
0.00103237
0.000905242
0.000792346
0.000692239
0.000603625
0.0005254
0.000456684
0.000396597
0.000343725
0.000298249
0.0002589
0.000224063
0.000193095
0.000165698
0.00014194
0.0001212
0.000102997
8.70393e-05
7.31354e-05
6.08864e-05
5.0162e-05
4.05119e-05
3.19488e-05
2.39143e-05
1.66481e-05
9.42297e-06
3.1597e-06
-0.626843
-0.662474
-0.692439
-0.716676
-0.733363
-0.740412
-0.737279
-0.723031
-0.697131
-0.659963
-0.612584
-0.55663
-0.494511
-0.429464
-0.36477
-0.303113
-0.246594
-0.196567
-0.153337
-0.116893
-0.0869508
-0.0628932
-0.0439111
-0.0291771
-0.0179358
-0.00952591
-0.00337752
0.000981118
0.00394057
0.00582131
0.00688844
0.00736646
0.00743608
0.00723487
0.0068643
0.00639732
0.00588493
0.00536162
0.0048499
0.00436375
0.00391101
0.00349528
0.00311727
0.00277584
0.0024688
0.00219351
0.00194716
0.00172702
0.00153047
0.00135503
0.00119844
0.0010586
0.00093367
0.000822049
0.000722369
0.000633466
0.000554312
0.000484008
0.000421741
0.000366832
0.000318591
0.000276433
0.000239802
0.00020752
0.000178884
0.000153583
0.000131553
0.000112507
9.57795e-05
8.11051e-05
6.82869e-05
5.71647e-05
4.74147e-05
3.89235e-05
3.13203e-05
2.46024e-05
1.83153e-05
1.26451e-05
7.01499e-06
2.25059e-06
-0.593399
-0.636377
-0.665797
-0.684047
-0.69428
-0.697494
-0.692401
-0.677178
-0.651221
-0.615182
-0.570463
-0.518927
-0.462901
-0.404994
-0.34772
-0.293145
-0.242837
-0.197858
-0.158568
-0.124922
-0.0967149
-0.0735433
-0.0548221
-0.039908
-0.0281906
-0.0191203
-0.0122145
-0.00706342
-0.00331702
-0.000674484
0.00111863
0.00227489
0.00296645
0.00332739
0.00345915
0.00343692
0.00331536
0.00313352
0.00291875
0.00268988
0.00245948
0.00223558
0.00202297
0.00182423
0.00164047
0.00147187
0.0013181
0.00117842
0.00105194
0.000937591
0.000834289
0.000740977
0.000656693
0.000580605
0.000512016
0.00045032
0.000394986
0.000345555
0.000301581
0.000262649
0.000228295
0.000198079
0.000171503
0.000148059
0.000127404
0.000109263
9.33811e-05
7.94932e-05
6.73385e-05
5.67567e-05
4.75637e-05
3.96352e-05
3.27269e-05
2.6751e-05
2.14226e-05
1.67347e-05
1.23431e-05
8.38786e-06
4.45026e-06
1.26195e-06
-0.560815
-0.607249
-0.633797
-0.646178
-0.651219
-0.651318
-0.644814
-0.629765
-0.605476
-0.572526
-0.532313
-0.486641
-0.437393
-0.386485
-0.335838
-0.287164
-0.241798
-0.200672
-0.164248
-0.132619
-0.105685
-0.083175
-0.0646528
-0.0496014
-0.0375117
-0.0279162
-0.0203963
-0.0145841
-0.0101581
-0.00683964
-0.00439246
-0.00261873
-0.00135578
-0.000474014
0.000126913
0.000523317
0.000772488
0.000916952
0.000988027
0.00100862
0.000995355
0.000960114
0.000911307
0.000854805
0.000794662
0.000733647
0.000673608
0.000615707
0.000560602
0.000508595
0.00045976
0.000414057
0.00037141
0.000331765
0.000295092
0.000261367
0.000230558
0.000202614
0.000177425
0.000154846
0.000134697
0.000116818
0.000100997
8.69823e-05
7.45455e-05
6.35259e-05
5.38071e-05
4.53294e-05
3.79785e-05
3.16431e-05
2.61989e-05
2.15717e-05
1.75988e-05
1.42199e-05
1.12395e-05
8.64888e-06
6.21658e-06
4.03932e-06
1.86414e-06
3.15842e-07
-0.532541
-0.575256
-0.598444
-0.60761
-0.610019
-0.6081
-0.600802
-0.586532
-0.564505
-0.53505
-0.499302
-0.458755
-0.414974
-0.369566
-0.324175
-0.280311
-0.239154
-0.20152
-0.167867
-0.138334
-0.112859
-0.0912357
-0.0731346
-0.0581519
-0.0458746
-0.0359139
-0.0279124
-0.0215475
-0.0165327
-0.0126174
-0.00958615
-0.0072557
-0.00547298
-0.00411366
-0.00307938
-0.00229354
-0.00169709
-0.00124483
-0.000902263
-0.000643113
-0.000447391
-0.000299918
-0.000189184
-0.000106447
-4.50618e-05
3.20273e-08
3.26763e-05
5.57577e-05
7.1425e-05
8.12778e-05
8.65263e-05
8.8129e-05
8.68872e-05
8.35067e-05
7.86124e-05
7.27404e-05
6.63291e-05
5.97288e-05
5.31968e-05
4.69055e-05
4.0962e-05
3.54425e-05
3.03422e-05
2.56254e-05
2.12907e-05
1.73758e-05
1.39126e-05
1.09301e-05
8.40829e-06
6.3238e-06
4.63755e-06
3.32585e-06
2.30641e-06
1.54511e-06
9.35377e-07
4.6703e-07
2.09132e-08
-3.49413e-07
-7.34388e-07
-6.3138e-07
-0.505275
-0.542875
-0.564027
-0.571953
-0.572929
-0.56969
-0.562047
-0.548727
-0.528845
-0.502474
-0.470489
-0.434181
-0.394978
-0.354331
-0.313639
-0.274147
-0.236829
-0.202378
-0.17122
-0.143542
-0.119344
-0.0985015
-0.080783
-0.065882
-0.0534657
-0.0432082
-0.0348025
-0.0279658
-0.022443
-0.0180077
-0.0144621
-0.0116359
-0.00938532
-0.00759171
-0.00615951
-0.00501282
-0.00409184
-0.00334966
-0.00274949
-0.00226247
-0.00186588
-0.00154181
-0.00127609
-0.00105749
-0.000877084
-0.000727746
-0.000603823
-0.000500831
-0.000415217
-0.000344143
-0.000285304
-0.000236771
-0.000196896
-0.000164239
-0.000137539
-0.000115714
-9.78552e-05
-8.3208e-05
-7.11579e-05
-6.12275e-05
-5.30441e-05
-4.62876e-05
-4.07094e-05
-3.61042e-05
-3.22686e-05
-2.90176e-05
-2.6197e-05
-2.36757e-05
-2.13569e-05
-1.91758e-05
-1.70872e-05
-1.50665e-05
-1.31146e-05
-1.12402e-05
-9.46051e-06
-7.78803e-06
-6.22896e-06
-4.77716e-06
-3.35933e-06
-1.59989e-06
-0.47847
-0.512846
-0.532645
-0.539882
-0.540044
-0.536121
-0.528444
-0.515991
-0.497889
-0.47408
-0.445273
-0.412625
-0.377428
-0.340937
-0.3043
-0.268526
-0.234452
-0.202706
-0.17371
-0.147686
-0.124686
-0.104637
-0.0873693
-0.072646
-0.0601966
-0.0497487
-0.0410406
-0.0338269
-0.0278825
-0.023004
-0.0190113
-0.0157476
-0.0130788
-0.0108926
-0.00909717
-0.00761818
-0.00639595
-0.00538265
-0.00453997
-0.00383707
-0.00324908
-0.00275581
-0.00234088
-0.0019909
-0.00169495
-0.00144409
-0.00123104
-0.00104985
-0.000895666
-0.000764484
-0.000652953
-0.000558222
-0.000477827
-0.000409622
-0.000351735
-0.000302553
-0.000260715
-0.000225075
-0.00019468
-0.000168738
-0.000146589
-0.000127658
-0.000111455
-9.75642e-05
-8.56056e-05
-7.52451e-05
-6.61886e-05
-5.81919e-05
-5.1049e-05
-4.46166e-05
-3.87656e-05
-3.34237e-05
-2.85099e-05
-2.4007e-05
-1.98426e-05
-1.60332e-05
-1.24703e-05
-9.20188e-06
-5.98383e-06
-2.57461e-06
-0.454646
-0.486221
-0.504522
-0.511292
-0.511
-0.506845
-0.499305
-0.487602
-0.470979
-0.449347
-0.423304
-0.393856
-0.362121
-0.329159
-0.295933
-0.263309
-0.232028
-0.202667
-0.175624
-0.151128
-0.129257
-0.109978
-0.0931723
-0.0786596
-0.0662262
-0.0556475
-0.0467022
-0.0391784
-0.0328775
-0.0276173
-0.0232343
-0.0195841
-0.016542
-0.0140022
-0.0118769
-0.0100937
-0.00859364
-0.00732868
-0.00625946
-0.00535373
-0.0045849
-0.00393097
-0.00337368
-0.00289785
-0.00249081
-0.00214207
-0.00184286
-0.00158592
-0.0013652
-0.00117559
-0.00101277
-0.000873011
-0.000753077
-0.000650151
-0.000561781
-0.000485855
-0.000420575
-0.000364415
-0.000316077
-0.000274458
-0.000238618
-0.000207743
-0.000181115
-0.000158116
-0.000138184
-0.000120833
-0.000105635
-9.22403e-05
-8.03419e-05
-6.97201e-05
-6.01613e-05
-5.15457e-05
-4.37115e-05
-3.66166e-05
-3.00984e-05
-2.41802e-05
-1.86371e-05
-1.35766e-05
-8.57851e-06
-3.54411e-06
-0.434581
-0.46267
-0.47923
-0.485543
-0.485306
-0.481243
-0.473968
-0.462956
-0.447613
-0.427871
-0.404228
-0.377534
-0.348736
-0.31875
-0.288417
-0.258501
-0.229654
-0.202396
-0.177092
-0.153969
-0.133128
-0.11457
-0.0982185
-0.0839403
-0.0715667
-0.0609135
-0.0517933
-0.0440228
-0.0374273
-0.0318439
-0.0271244
-0.0231363
-0.0197642
-0.0169086
-0.0144858
-0.0124263
-0.010672
-0.00917522
-0.00789604
-0.00680124
-0.00586298
-0.00505779
-0.0043659
-0.00377061
-0.00325779
-0.00281555
-0.00243387
-0.00210427
-0.0018196
-0.00157375
-0.00136148
-0.00117826
-0.00102011
-0.000883605
-0.000765736
-0.000663921
-0.000575941
-0.000499899
-0.000434172
-0.000377357
-0.000328247
-0.000285786
-0.000249036
-0.000217179
-0.000189484
-0.000165322
-0.000144136
-0.000125479
-0.000108943
-9.42358e-05
-8.10609e-05
-6.92519e-05
-5.85678e-05
-4.89429e-05
-4.01251e-05
-3.2148e-05
-2.4669e-05
-1.78584e-05
-1.11182e-05
-4.49848e-06
-0.417091
-0.441611
-0.456566
-0.462605
-0.462632
-0.458853
-0.451938
-0.441584
-0.427372
-0.409264
-0.387676
-0.363318
-0.33701
-0.309555
-0.281702
-0.254121
-0.227386
-0.201962
-0.178188
-0.156291
-0.136387
-0.118503
-0.102595
-0.0885659
-0.0762846
-0.0655999
-0.0563538
-0.0483884
-0.0415502
-0.035694
-0.0306854
-0.0264033
-0.0227406
-0.0196043
-0.0169151
-0.014606
-0.0126207
-0.0109118
-0.00943952
-0.00816991
-0.00707421
-0.00612785
-0.00530984
-0.0046022
-0.00398961
-0.00345896
-0.00299909
-0.00260048
-0.00225496
-0.00195551
-0.00169605
-0.00147128
-0.00127658
-0.00110791
-0.000961772
-0.000835138
-0.000725392
-0.000630285
-0.00054788
-0.00047649
-0.000414642
-0.00036105
-0.000314562
-0.000274176
-0.000239001
-0.000208275
-0.000181317
-0.000157584
-0.000136572
-0.000117923
-0.000101258
-8.63675e-05
-7.29315e-05
-6.08633e-05
-4.98233e-05
-3.98571e-05
-3.05064e-05
-2.20044e-05
-1.35777e-05
-5.4262e-06
-0.401242
-0.422868
-0.436517
-0.442395
-0.442732
-0.439319
-0.432814
-0.423089
-0.409873
-0.393165
-0.373319
-0.350945
-0.326757
-0.301468
-0.275739
-0.250161
-0.225246
-0.201414
-0.178985
-0.158179
-0.139123
-0.121861
-0.106377
-0.0926007
-0.0804314
-0.0697467
-0.0604138
-0.0522967
-0.0452605
-0.0391755
-0.0339204
-0.029384
-0.0254672
-0.0220832
-0.0191569
-0.0166242
-0.0144306
-0.0125294
-0.0108809
-0.00945106
-0.00821039
-0.0071335
-0.00619844
-0.00538622
-0.00468046
-0.00406707
-0.00353387
-0.0030704
-0.0026676
-0.0023176
-0.00201356
-0.0017495
-0.00152019
-0.00132106
-0.00114813
-0.000997959
-0.000867571
-0.000754382
-0.000656154
-0.000570929
-0.000496983
-0.000432808
-0.000377057
-0.000328554
-0.000286256
-0.000249274
-0.000216813
-0.000188238
-0.000162957
-0.000140546
-0.000120553
-0.000102722
-8.66593e-05
-7.22587e-05
-5.90965e-05
-4.72304e-05
-3.60906e-05
-2.59723e-05
-1.59322e-05
-6.31607e-06
-0.387076
-0.406458
-0.419021
-0.424758
-0.425371
-0.422336
-0.416258
-0.407125
-0.394781
-0.379266
-0.3609
-0.340214
-0.317834
-0.29439
-0.270471
-0.246605
-0.223253
-0.200801
-0.179549
-0.159708
-0.141411
-0.124718
-0.109629
-0.0960997
-0.0840536
-0.0733918
-0.0640029
-0.0557696
-0.0485734
-0.0422982
-0.0368341
-0.0320793
-0.0279421
-0.0243412
-0.0212056
-0.0184743
-0.0160943
-0.0140201
-0.0122124
-0.0106371
-0.00926423
-0.00806788
-0.00702534
-0.0061168
-0.00532504
-0.00463507
-0.00403388
-0.00351015
-0.00305404
-0.00265693
-0.00231129
-0.00201051
-0.00174882
-0.00152117
-0.00132314
-0.00115093
-0.0010012
-0.000871059
-0.000757995
-0.000659791
-0.000574491
-0.00050038
-0.000435924
-0.00037979
-0.000330789
-0.000287917
-0.000250274
-0.000217139
-0.000187838
-0.000161884
-0.000138753
-0.000118152
-9.96144e-05
-8.30156e-05
-6.78523e-05
-5.41941e-05
-4.13658e-05
-2.9722e-05
-1.81577e-05
-7.15753e-06
-0.374842
-0.392295
-0.40388
-0.409461
-0.410319
-0.40765
-0.401991
-0.393401
-0.381818
-0.367322
-0.350212
-0.330959
-0.310112
-0.288233
-0.265849
-0.243439
-0.221426
-0.200164
-0.179933
-0.160939
-0.143315
-0.127132
-0.112407
-0.0991131
-0.0871941
-0.0765706
-0.0671492
-0.0588287
-0.0515043
-0.0450723
-0.0394325
-0.0344917
-0.0301647
-0.0263754
-0.0230568
-0.0201505
-0.0176055
-0.0153774
-0.0134274
-0.0117214
-0.0102294
-0.00892494
-0.00778488
-0.00678872
-0.00591853
-0.0051586
-0.00449517
-0.00391619
-0.00341111
-0.00297066
-0.00258669
-0.00225205
-0.00196048
-0.00170649
-0.00148528
-0.00129268
-0.00112507
-0.000979258
-0.000852471
-0.000742257
-0.000646446
-0.000563129
-0.000490603
-0.000427389
-0.000372168
-0.00032383
-0.000281375
-0.000244005
-0.00021097
-0.000181726
-0.000155681
-0.000132506
-0.000111668
-9.3027e-05
-7.60035e-05
-6.0679e-05
-4.62792e-05
-3.32153e-05
-2.02318e-05
-7.94192e-06
-0.364471
-0.38016
-0.390852
-0.396286
-0.397376
-0.395054
-0.389787
-0.381685
-0.370762
-0.357135
-0.341087
-0.32304
-0.303483
-0.28292
-0.261831
-0.240655
-0.21978
-0.199535
-0.180183
-0.161922
-0.144888
-0.129158
-0.11476
-0.101685
-0.0898915
-0.0793154
-0.0698788
-0.0614939
-0.0540681
-0.0475078
-0.0417218
-0.036624
-0.0321352
-0.0281841
-0.0247072
-0.0216487
-0.0189593
-0.0165958
-0.0145201
-0.0126982
-0.0111002
-0.00969936
-0.00847206
-0.00739734
-0.00645668
-0.00563376
-0.00491419
-0.0042853
-0.00373592
-0.0032562
-0.00283746
-0.00247208
-0.00215336
-0.00187541
-0.00163311
-0.00142197
-0.00123808
-0.00107801
-0.000938725
-0.00081757
-0.000712178
-0.000620465
-0.000540576
-0.000470897
-0.000409997
-0.000356664
-0.000309813
-0.000268575
-0.000232127
-0.000199877
-0.00017117
-0.000145642
-0.000122703
-0.000102194
-8.34693e-05
-6.66203e-05
-5.07819e-05
-3.64172e-05
-2.21339e-05
-8.66102e-06
-0.355696
-0.369833
-0.379755
-0.385075
-0.386384
-0.384379
-0.379464
-0.37179
-0.361433
-0.348539
-0.33338
-0.316338
-0.297855
-0.278391
-0.258385
-0.238243
-0.218325
-0.198938
-0.180333
-0.1627
-0.146174
-0.130839
-0.116732
-0.103855
-0.0921796
-0.0816548
-0.072215
-0.0637838
-0.0562786
-0.0496146
-0.0437082
-0.0384796
-0.0338548
-0.0297665
-0.0261545
-0.0229653
-0.0201514
-0.0176707
-0.0154856
-0.0135627
-0.0118719
-0.0103865
-0.00908252
-0.00793856
-0.00693568
-0.00605706
-0.00528777
-0.0046146
-0.00402586
-0.00351122
-0.00306152
-0.00266874
-0.0023258
-0.00202648
-0.00176535
-0.00153766
-0.00133924
-0.00116643
-0.00101598
-0.000885041
-0.000771078
-0.000671852
-0.000585369
-0.000509901
-0.000443911
-0.000386104
-0.000335314
-0.000290609
-0.000251103
-0.000216159
-0.000185067
-0.000157431
-0.000132608
-0.000110426
-9.01756e-05
-7.19588e-05
-5.48294e-05
-3.92963e-05
-2.38449e-05
-9.30779e-06
-0.34832
-0.361176
-0.370469
-0.375708
-0.377211
-0.375481
-0.37087
-0.363563
-0.353683
-0.341397
-0.326971
-0.310755
-0.293156
-0.274595
-0.255481
-0.236193
-0.217067
-0.198395
-0.180413
-0.163307
-0.147212
-0.132215
-0.118359
-0.105656
-0.0940876
-0.0836136
-0.0741785
-0.0657148
-0.0581484
-0.0514019
-0.0453979
-0.040062
-0.0353247
-0.0311221
-0.0273969
-0.0240977
-0.0211785
-0.0185983
-0.0163201
-0.0143108
-0.0125406
-0.0109825
-0.00961251
-0.00840887
-0.00735228
-0.00642549
-0.00561314
-0.00490158
-0.00427867
-0.00373366
-0.00325704
-0.0028404
-0.00247635
-0.00215841
-0.00188088
-0.00163876
-0.00142766
-0.00124373
-0.00108353
-0.000944056
-0.000822605
-0.000716811
-0.000624563
-0.000544031
-0.000473589
-0.000411867
-0.000357631
-0.000309893
-0.000267713
-0.000230413
-0.000197236
-0.000167758
-0.000141288
-0.000117641
-9.60563e-05
-7.66418e-05
-5.83821e-05
-4.18245e-05
-2.53483e-05
-9.87586e-06
-0.342262
-0.354105
-0.362898
-0.368077
-0.369742
-0.36824
-0.363884
-0.356881
-0.347391
-0.3356
-0.321764
-0.306213
-0.289324
-0.271491
-0.253096
-0.234497
-0.216013
-0.19792
-0.180447
-0.163773
-0.148033
-0.133315
-0.119671
-0.107116
-0.0956403
-0.0852134
-0.075787
-0.0673013
-0.0596887
-0.0528778
-0.0467965
-0.0413747
-0.0365465
-0.0322511
-0.0284334
-0.025044
-0.022038
-0.0193755
-0.0170201
-0.0149391
-0.0131027
-0.0114841
-0.0100589
-0.00880529
-0.00770367
-0.00673645
-0.00588792
-0.00514405
-0.00449236
-0.00392175
-0.0034224
-0.00298562
-0.00260376
-0.00227009
-0.00197869
-0.00172437
-0.00150256
-0.00130922
-0.00114078
-0.000994078
-0.000866285
-0.000754926
-0.000657791
-0.000572965
-0.000498747
-0.000433706
-0.000376549
-0.000326242
-0.000281797
-0.000242502
-0.000207559
-0.000176522
-0.000148657
-0.00012377
-0.000101053
-8.06234e-05
-6.14048e-05
-4.39766e-05
-2.66292e-05
-1.03598e-05
-0.337483
-0.348547
-0.356957
-0.362089
-0.363879
-0.362558
-0.358404
-0.351644
-0.342463
-0.331059
-0.317684
-0.302651
-0.286314
-0.269046
-0.251211
-0.233149
-0.215166
-0.197527
-0.180453
-0.16412
-0.148662
-0.134167
-0.120691
-0.108256
-0.0968582
-0.0864719
-0.0770557
-0.0685555
-0.0609092
-0.0540497
-0.0479091
-0.0424208
-0.0375217
-0.0331536
-0.0292632
-0.0258025
-0.0227278
-0.02
-0.0175832
-0.0154449
-0.0135556
-0.0118885
-0.010419
-0.00912535
-0.00798754
-0.0069878
-0.00611012
-0.0053402
-0.00466529
-0.00407401
-0.00355629
-0.00310323
-0.00270696
-0.00236056
-0.00205795
-0.00179376
-0.00156328
-0.00136234
-0.00118722
-0.00103465
-0.000901717
-0.000785841
-0.000684739
-0.000596428
-0.000519147
-0.000451413
-0.000391888
-0.000339498
-0.000293218
-0.000252308
-0.000215937
-0.000183637
-0.000154643
-0.000128751
-0.000105119
-8.38653e-05
-6.38684e-05
-4.57319e-05
-2.76753e-05
-1.07545e-05
-0.333935
-0.344434
-0.352569
-0.357671
-0.359551
-0.358363
-0.35436
-0.34778
-0.338827
-0.327709
-0.314673
-0.300019
-0.284088
-0.267234
-0.24981
-0.232143
-0.214529
-0.197224
-0.180446
-0.164366
-0.149117
-0.134789
-0.12144
-0.109096
-0.0977575
-0.0874034
-0.0779967
-0.0694876
-0.0618176
-0.0549234
-0.0487398
-0.0432029
-0.0382519
-0.0338301
-0.0298859
-0.0263722
-0.0232465
-0.0204699
-0.0180072
-0.0158261
-0.0138972
-0.0121936
-0.010691
-0.00936712
-0.00820208
-0.00717782
-0.00627817
-0.00548859
-0.00479613
-0.00418924
-0.00365764
-0.00319227
-0.00278511
-0.00242909
-0.002118
-0.00184635
-0.00160931
-0.0014026
-0.00122243
-0.00106542
-0.000928578
-0.000809272
-0.000705157
-0.000614199
-0.000534594
-0.000464818
-0.000403497
-0.000349531
-0.000301865
-0.000259737
-0.000222287
-0.000189034
-0.000159188
-0.000132539
-0.000108215
-8.63372e-05
-6.57506e-05
-4.70757e-05
-2.848e-05
-1.10572e-05
-0.33154
-0.341688
-0.349658
-0.354752
-0.356697
-0.355598
-0.351694
-0.345233
-0.336431
-0.325501
-0.312688
-0.298284
-0.282618
-0.266037
-0.248882
-0.231474
-0.214103
-0.197019
-0.180436
-0.164523
-0.149412
-0.135196
-0.121932
-0.109649
-0.0983504
-0.0880185
-0.0786191
-0.0701049
-0.0624201
-0.0555035
-0.049292
-0.0437233
-0.0387381
-0.034281
-0.0303012
-0.0267525
-0.0235929
-0.020784
-0.0182908
-0.0160812
-0.0141258
-0.012398
-0.0108732
-0.00952919
-0.00834594
-0.00730529
-0.00639091
-0.00558817
-0.00488394
-0.00426657
-0.00372566
-0.00325204
-0.00283757
-0.00247511
-0.00215834
-0.00188169
-0.00164026
-0.00142968
-0.0012461
-0.0010861
-0.000946635
-0.000825017
-0.000718867
-0.000626124
-0.000544949
-0.000473796
-0.000411269
-0.000356247
-0.000307655
-0.000264713
-0.000226544
-0.000192658
-0.000162247
-0.000135092
-0.000110309
-8.80127e-05
-6.70337e-05
-4.79936e-05
-2.90397e-05
-1.12658e-05
-0.330263
-0.340268
-0.348173
-0.353272
-0.355268
-0.354221
-0.350369
-0.343967
-0.33524
-0.324404
-0.311703
-0.297422
-0.281888
-0.265442
-0.24842
-0.231141
-0.213889
-0.196915
-0.180428
-0.164599
-0.149557
-0.135396
-0.122174
-0.109922
-0.0986441
-0.0883237
-0.0789281
-0.0704117
-0.0627197
-0.0557922
-0.049567
-0.0439827
-0.0389806
-0.0345059
-0.0305085
-0.0269424
-0.023766
-0.020941
-0.0184325
-0.0162087
-0.0142402
-0.0125003
-0.0109644
-0.00961034
-0.00841799
-0.00736914
-0.00644739
-0.00563805
-0.00492793
-0.0043053
-0.00375973
-0.00328197
-0.00286385
-0.00249817
-0.00217855
-0.00189941
-0.00165578
-0.00144327
-0.00125799
-0.00109649
-0.000955697
-0.000832913
-0.000725739
-0.000632092
-0.000550125
-0.000478279
-0.000415147
-0.000359595
-0.00031054
-0.000267192
-0.00022867
-0.000194469
-0.000163782
-0.000136374
-0.000111368
-8.88571e-05
-6.76939e-05
-4.84561e-05
-2.93436e-05
-1.13659e-05
-0.314026
-0.344564
-0.374015
-0.402343
-0.429782
-0.456649
-0.484616
-0.514383
-0.548192
-0.591399
-0.299651
-0.329898
-0.359571
-0.388708
-0.417681
-0.44668
-0.475183
-0.504346
-0.528996
-0.560194
-0.286804
-0.316229
-0.34476
-0.373032
-0.399987
-0.426746
-0.449112
-0.471195
-0.488115
-0.51647
-0.274827
-0.303151
-0.329713
-0.356
-0.379014
-0.401467
-0.418502
-0.437702
-0.457993
-0.489144