/*--------------------------------*- C++ -*----------------------------------*\
| =========                 |                                                 |
| \\      /  F ield         | OpenFOAM: The Open Source CFD Toolbox           |
|  \\    /   O peration     | Version:  4.1                                   |
|   \\  /    A nd           | Web:      www.OpenFOAM.org                      |
|    \\/     M anipulation  |                                                 |
\*---------------------------------------------------------------------------*/
FoamFile
{
    version     2.0;
    format      ascii;
    class       volScalarField;
    location    "9";
    object      p;
}
// * * * * * * * * * * * * * * * * * * * * * * * * * * * * * * * * * * * * * //

dimensions      [0 2 -2 0 0 0 0];

internalField   nonuniform List<scalar> 
2000
(
-0.234513
-0.224016
-0.213486
-0.203906
-0.19624
-0.190299
-0.185002
-0.18093
-0.174996
-0.1741
-0.255725
-0.241386
-0.228297
-0.216521
-0.206337
-0.197186
-0.188351
-0.179602
-0.170037
-0.162532
-0.282437
-0.263379
-0.247346
-0.232742
-0.218712
-0.20478
-0.190746
-0.176807
-0.162735
-0.149533
-0.314884
-0.29024
-0.27075
-0.251948
-0.23202
-0.211476
-0.191152
-0.171699
-0.15295
-0.136645
-0.352836
-0.321587
-0.297751
-0.272384
-0.244117
-0.215431
-0.188194
-0.163096
-0.140307
-0.120507
-0.394345
-0.35612
-0.326002
-0.291005
-0.252298
-0.214633
-0.180357
-0.14995
-0.12322
-0.100133
-0.436135
-0.391387
-0.351574
-0.304015
-0.253779
-0.207154
-0.166246
-0.130923
-0.100549
-0.0741712
-0.473289
-0.423164
-0.369923
-0.307837
-0.24613
-0.191284
-0.144481
-0.104845
-0.0710703
-0.0415943
-0.500507
-0.445677
-0.376733
-0.299641
-0.227419
-0.165513
-0.1138
-0.0705904
-0.0339329
-0.00196605
-0.513141
-0.45329
-0.36807
-0.277252
-0.196186
-0.128631
-0.0731077
-0.0272001
0.0115805
0.0450509
-0.142081
-0.148694
-0.152214
-0.155682
-0.159562
-0.163624
-0.167678
-0.171608
-0.175442
-0.179408
-0.145568
-0.151629
-0.154921
-0.158303
-0.162134
-0.166159
-0.17017
-0.173991
-0.177599
-0.181549
-0.151944
-0.156907
-0.159755
-0.162871
-0.16649
-0.170325
-0.17414
-0.177684
-0.180776
-0.184359
-0.160129
-0.16363
-0.165741
-0.168292
-0.171407
-0.174769
-0.17811
-0.181169
-0.183488
-0.185538
-0.169042
-0.17091
-0.171945
-0.173542
-0.175777
-0.178334
-0.18089
-0.183235
-0.184634
-0.184412
-0.177931
-0.178147
-0.177759
-0.17798
-0.178957
-0.180436
-0.182036
-0.183471
-0.184171
-0.180588
-0.186596
-0.18515
-0.183085
-0.181549
-0.180941
-0.181159
-0.181741
-0.18219
-0.183429
-0.175083
-0.195477
-0.192308
-0.188331
-0.184789
-0.182427
-0.181303
-0.180953
-0.180264
-0.182746
-0.171206
-0.205564
-0.200445
-0.194405
-0.188808
-0.184674
-0.182243
-0.180911
-0.179398
-0.181372
-0.171214
-0.218141
-0.210658
-0.202444
-0.194824
-0.189038
-0.185146
-0.182248
-0.180226
-0.17906
-0.175157
-0.183589
-0.187343
-0.190858
-0.193997
-0.196591
-0.198455
-0.199367
-0.199075
-0.197294
-0.1937
-0.187929
-0.179562
-0.168209
-0.153876
-0.136366
-0.115706
-0.0915716
-0.0629886
-0.0309318
-0.00560703
-0.186658
-0.19054
-0.194191
-0.197535
-0.200381
-0.202537
-0.203782
-0.203861
-0.202482
-0.199318
-0.194009
-0.186149
-0.175359
-0.161235
-0.143879
-0.12314
-0.0987724
-0.0700462
-0.0374199
-0.00864002
-0.191209
-0.195282
-0.19915
-0.202864
-0.206138
-0.208784
-0.210589
-0.211287
-0.210569
-0.208085
-0.203451
-0.196249
-0.186073
-0.172536
-0.155549
-0.13478
-0.110004
-0.0808487
-0.0473017
-0.0133371
-0.195506
-0.199356
-0.203484
-0.207678
-0.211503
-0.214746
-0.217182
-0.218567
-0.218588
-0.216849
-0.212918
-0.206311
-0.196513
-0.183727
-0.167121
-0.146348
-0.121126
-0.0913082
-0.0566405
-0.0173083
-0.196606
-0.201831
-0.205941
-0.210428
-0.214831
-0.218719
-0.221808
-0.22384
-0.224531
-0.223469
-0.220181
-0.214167
-0.205092
-0.192362
-0.175793
-0.154885
-0.129223
-0.0984466
-0.0623933
-0.0207186
-0.195488
-0.202581
-0.206506
-0.210907
-0.215732
-0.220203
-0.223842
-0.226396
-0.22759
-0.227006
-0.224148
-0.218426
-0.209667
-0.197126
-0.180531
-0.159382
-0.133312
-0.101837
-0.0651056
-0.022112
-0.192829
-0.2022
-0.205762
-0.209592
-0.214562
-0.219432
-0.223391
-0.226225
-0.227685
-0.227288
-0.224657
-0.219238
-0.210447
-0.197937
-0.18124
-0.159858
-0.133558
-0.101792
-0.0650361
-0.0222913
-0.190049
-0.201047
-0.20389
-0.206846
-0.211744
-0.216704
-0.22065
-0.223467
-0.224927
-0.224608
-0.221809
-0.216242
-0.207392
-0.194763
-0.177949
-0.15652
-0.130316
-0.0989186
-0.0628452
-0.0216708
-0.188226
-0.198182
-0.199518
-0.20178
-0.206336
-0.210776
-0.214462
-0.217153
-0.21844
-0.2179
-0.215018
-0.209335
-0.200364
-0.18771
-0.170983
-0.149903
-0.124277
-0.0940289
-0.05938
-0.020693
-0.190664
-0.194319
-0.193838
-0.195994
-0.199043
-0.202085
-0.20482
-0.206788
-0.207466
-0.206488
-0.203318
-0.197528
-0.188618
-0.176281
-0.160074
-0.139939
-0.115569
-0.0873193
-0.0550077
-0.0196122
-0.173959
-0.179198
-0.184565
-0.187995
-0.190222
-0.192426
-0.194505
-0.19589
-0.195954
-0.19427
-0.190405
-0.184059
-0.174791
-0.162418
-0.146544
-0.1273
-0.104355
-0.0783653
-0.0489338
-0.0175537
-0.166716
-0.174189
-0.177587
-0.178337
-0.179213
-0.180648
-0.182068
-0.182726
-0.181973
-0.179472
-0.174899
-0.16807
-0.158608
-0.146445
-0.131217
-0.113191
-0.0920156
-0.0685214
-0.0422076
-0.0149186
-0.150711
-0.161433
-0.165167
-0.165607
-0.165855
-0.166797
-0.167798
-0.167987
-0.166722
-0.163753
-0.158838
-0.151894
-0.142607
-0.130994
-0.11673
-0.100156
-0.0809375
-0.0599707
-0.0367494
-0.0131046
-0.13379
-0.146943
-0.151692
-0.152074
-0.151967
-0.152584
-0.153321
-0.153262
-0.151757
-0.148601
-0.14362
-0.136808
-0.127917
-0.11702
-0.103833
-0.0887362
-0.0714166
-0.0527632
-0.0322534
-0.011548
-0.116675
-0.130875
-0.136692
-0.137732
-0.137823
-0.138409
-0.139072
-0.138958
-0.137428
-0.134304
-0.12946
-0.122952
-0.114588
-0.104485
-0.0923982
-0.0787202
-0.0631592
-0.046559
-0.0283932
-0.0101752
-0.0992036
-0.114011
-0.121083
-0.123163
-0.123784
-0.124549
-0.125278
-0.125243
-0.123841
-0.120907
-0.116348
-0.110264
-0.10251
-0.09324
-0.0822378
-0.069899
-0.0559466
-0.0411728
-0.0250632
-0.00900061
-0.0820569
-0.0973426
-0.105527
-0.108677
-0.109983
-0.111091
-0.112012
-0.112166
-0.111005
-0.10838
-0.104214
-0.0986393
-0.0915473
-0.0831203
-0.0731677
-0.0620824
-0.0495973
-0.0364599
-0.0221659
-0.00798697
-0.0658437
-0.0812777
-0.0902908
-0.0944432
-0.0965188
-0.098098
-0.0993198
-0.0997497
-0.0989108
-0.0966761
-0.0929758
-0.0879637
-0.0815594
-0.0739687
-0.0650194
-0.0551031
-0.0439568
-0.0322936
-0.0196116
-0.00709952
-0.0506431
-0.0659313
-0.0755628
-0.0806428
-0.0835211
-0.0856484
-0.0872486
-0.0880168
-0.0875531
-0.0857573
-0.0825658
-0.0781461
-0.0724361
-0.0656618
-0.0576636
-0.0488343
-0.0389104
-0.0285801
-0.0173385
-0.00631628
-0.0364201
-0.0514396
-0.0615427
-0.0674595
-0.0711224
-0.073829
-0.0758526
-0.0769985
-0.0769406
-0.0756096
-0.0729466
-0.0691284
-0.0641037
-0.0581152
-0.0510115
-0.0431889
-0.0343797
-0.0252564
-0.0153064
-0.00562181
-0.0232479
-0.0379447
-0.0483981
-0.055045
-0.0594436
-0.0627289
-0.0651956
-0.0667385
-0.067099
-0.0662396
-0.0641059
-0.0608811
-0.0565191
-0.0512763
-0.0450059
-0.0381096
-0.0303133
-0.0222808
-0.0134888
-0.00500504
-0.0112423
-0.0255612
-0.0362494
-0.0435197
-0.0485934
-0.0524379
-0.0553477
-0.0572897
-0.0580653
-0.0576686
-0.0560492
-0.0533951
-0.0496612
-0.0451154
-0.0396125
-0.0335608
-0.0266789
-0.0196266
-0.0118687
-0.00445851
-0.000466806
-0.0143629
-0.025191
-0.0329895
-0.038674
-0.0430447
-0.0463813
-0.0487092
-0.0498831
-0.0499269
-0.0487938
-0.0466753
-0.0435245
-0.0396189
-0.0348131
-0.0295223
-0.0234573
-0.0172779
-0.0104359
-0.00397742
0.0090507
-0.00440992
-0.0153106
-0.0235529
-0.0297799
-0.0346326
-0.0383666
-0.041055
-0.0425991
-0.0430499
-0.0423639
-0.0407353
-0.0381138
-0.0347845
-0.0306005
-0.0259842
-0.0206387
-0.0152256
-0.00918461
-0.00355877
0.017282
0.00423973
-0.00668741
-0.0152968
-0.0219952
-0.0272769
-0.0313692
-0.0343829
-0.0362593
-0.0370744
-0.0367874
-0.0355941
-0.03344
-0.0306166
-0.0269747
-0.0229435
-0.018219
-0.0134656
-0.00811207
-0.00320078
0.0241974
0.011536
0.000611343
-0.0082958
-0.0153927
-0.0210435
-0.0254464
-0.0287423
-0.0309062
-0.0320355
-0.0320917
-0.0312717
-0.0295168
-0.0271234
-0.0239399
-0.0204014
-0.0161977
-0.0119965
-0.00721713
-0.00290256
0.0297686
0.0174351
0.00652748
-0.00261472
-0.0100354
-0.0159891
-0.0206476
-0.0241758
-0.0265762
-0.0279637
-0.0283014
-0.027787
-0.0263578
-0.0243139
-0.0215014
-0.0183606
-0.0145761
-0.0108186
-0.00649971
-0.00266374
0.0339738
0.0218951
0.0110079
0.00168761
-0.00598023
-0.012164
-0.0170167
-0.0207217
-0.0233024
-0.0248869
-0.0254394
-0.0251579
-0.0239764
-0.0221975
-0.0196659
-0.0168253
-0.0133568
-0.00993338
-0.00596092
-0.00248451
0.0368639
0.0249246
0.014031
0.00457716
-0.00326111
-0.0095996
-0.0145824
-0.018406
-0.0211079
-0.022825
-0.0235225
-0.0233977
-0.0223832
-0.0207819
-0.0184391
-0.0157987
-0.0125428
-0.00934138
-0.00560331
-0.00236351
0.0385102
0.0266073
0.0156229
0.00605961
-0.00187695
-0.00829761
-0.01335
-0.0172349
-0.0200006
-0.0217847
-0.0225582
-0.0225113
-0.0215842
-0.0200691
-0.017826
-0.0152802
-0.012139
-0.0090384
-0.00543119
-0.00229327
0.0718826
0.0247585
-0.0159508
-0.0503875
-0.078769
-0.10184
-0.120627
-0.136792
-0.14998
-0.171162
0.0940318
0.0480599
0.00802332
-0.0266571
-0.0559179
-0.0812806
-0.101828
-0.122384
-0.136253
-0.158616
0.113888
0.0695995
0.0309437
-0.00337684
-0.0325259
-0.0594196
-0.0805948
-0.1032
-0.116931
-0.137505
0.131591
0.0889644
0.0516417
0.017714
-0.0110267
-0.0384515
-0.0595178
-0.0819628
-0.0965774
-0.116868
0.147329
0.106172
0.0699728
0.0365115
0.0082069
-0.0190483
-0.0401937
-0.0623627
-0.0787855
-0.0990282
0.16131
0.121508
0.0863081
0.0534826
0.0255666
-0.00129511
-0.0228881
-0.0449827
-0.0624051
-0.0819105
0.173767
0.135259
0.100989
0.0689137
0.0413327
0.0149217
-0.00696474
-0.0286634
-0.0460917
-0.0649355
0.184909
0.147629
0.114227
0.0829342
0.0557071
0.0298442
0.00804984
-0.0130732
-0.0303438
-0.0488819
0.194896
0.158756
0.126167
0.0956495
0.0688439
0.0435805
0.0220491
0.00136444
-0.0158555
-0.0340674
0.203847
0.168748
0.136922
0.10715
0.0808044
0.0560968
0.0348218
0.0144749
-0.00263785
-0.0203372
0.211849
0.177688
0.146574
0.117497
0.0916055
0.0673934
0.0463692
0.0263951
0.00948385
-0.00764205
0.218965
0.185644
0.155182
0.126742
0.10128
0.0775344
0.0567779
0.0372148
0.0205096
0.00391048
0.225234
0.192662
0.162789
0.134929
0.109869
0.0865719
0.0660774
0.0469064
0.0303667
0.0142383
0.230679
0.198772
0.169424
0.142092
0.117399
0.0945196
0.0742561
0.0554331
0.0390276
0.0233238
0.235312
0.203994
0.175109
0.148249
0.123883
0.101377
0.0813093
0.0627898
0.0464967
0.0311608
0.239138
0.208337
0.179856
0.15341
0.129329
0.107147
0.0872439
0.0689806
0.0527745
0.037733
0.242159
0.211805
0.183674
0.157584
0.133745
0.111836
0.0920681
0.0740063
0.0578549
0.0430232
0.244385
0.214412
0.186581
0.16079
0.137155
0.115466
0.0958026
0.077883
0.0617512
0.0470339
0.245797
0.216142
0.188569
0.16303
0.139574
0.118062
0.0984823
0.0806568
0.064523
0.0498379
0.24633
0.216893
0.189499
0.164149
0.140838
0.119462
0.0999615
0.0822097
0.0660879
0.0514198
0.784274
0.787371
0.780869
0.765466
0.742085
0.709911
0.665123
0.60137
0.516978
0.457874
0.717625
0.714615
0.696954
0.671939
0.640539
0.599744
0.544394
0.467818
0.36854
0.297759
0.646598
0.635399
0.608572
0.575708
0.536815
0.487445
0.421845
0.333377
0.22062
0.140217
0.565191
0.547778
0.515528
0.477349
0.432243
0.375149
0.300375
0.201746
0.0773444
-0.0092109
0.479371
0.457069
0.42114
0.37904
0.328861
0.265241
0.182721
0.0763544
-0.0572533
-0.143794
0.394545
0.367794
0.328952
0.283747
0.229505
0.160694
0.0719293
-0.0403128
-0.174914
-0.260686
0.313207
0.282521
0.241576
0.194158
0.137066
0.0646719
-0.0280067
-0.143226
-0.273425
-0.357039
0.236681
0.202915
0.160953
0.112365
0.053894
-0.020368
-0.114162
-0.228512
-0.351696
-0.430645
0.165883
0.130316
0.0888318
0.0402794
-0.0189416
-0.0927988
-0.184813
-0.294702
-0.408017
-0.480591
0.100446
0.0662419
0.0259709
-0.0217435
-0.0798686
-0.151464
-0.239201
-0.341172
-0.441605
-0.50746
1.18368
1.2029
1.22452
1.24859
1.27503
1.30358
1.3334
1.36214
1.38695
1.41472
1.17874
1.19687
1.21765
1.24082
1.26615
1.29331
1.32143
1.34811
1.37041
1.39636
1.16851
1.18449
1.20361
1.22501
1.24813
1.27255
1.2973
1.31981
1.33734
1.35941
1.15237
1.16517
1.18186
1.20068
1.22057
1.24097
1.26076
1.27714
1.28762
1.30395
1.12949
1.13818
1.15178
1.16729
1.18301
1.1982
1.21156
1.21997
1.22124
1.23011
1.099
1.10267
1.11257
1.12415
1.13489
1.14384
1.14948
1.1483
1.13835
1.13827
1.06022
1.05821
1.06403
1.07118
1.07619
1.07791
1.07465
1.06243
1.03948
1.02921
1.01149
1.00322
1.0052
1.00795
1.00679
1.00061
0.98756
0.963196
0.925751
0.904292
0.952885
0.938623
0.937482
0.935329
0.927182
0.912444
0.889047
0.851847
0.799003
0.765359
0.876819
0.863872
0.862307
0.85475
0.838864
0.815114
0.780924
0.730414
0.661711
0.615275
1.00237
1.00713
1.01256
1.01846
1.02448
1.03057
1.03682
1.04334
1.05018
1.05742
1.06511
1.07327
1.08197
1.09131
1.10138
1.1123
1.12417
1.13711
1.15124
1.1667
1.00235
1.00713
1.01254
1.01836
1.0243
1.03031
1.0365
1.04293
1.04968
1.05682
1.06437
1.07238
1.08091
1.09005
1.09988
1.11051
1.12204
1.13455
1.14816
1.16295
1.00236
1.00713
1.01243
1.0181
1.02389
1.02977
1.0358
1.04207
1.04864
1.05556
1.06284
1.07053
1.0787
1.08742
1.09676
1.10679
1.11759
1.12922
1.14172
1.15512
1.00236
1.00708
1.0122
1.01765
1.02321
1.02886
1.03465
1.04065
1.04691
1.05351
1.06037
1.06756
1.07515
1.0832
1.09175
1.10082
1.11046
1.12069
1.13143
1.1426
1.00233
1.00695
1.01182
1.01695
1.02221
1.02755
1.03301
1.03866
1.04451
1.05055
1.05677
1.06326
1.07005
1.07714
1.08454
1.09224
1.10021
1.10839
1.1166
1.12456
1.00226
1.00672
1.01126
1.01597
1.0208
1.02571
1.0307
1.03582
1.04116
1.04647
1.05187
1.05743
1.06313
1.06893
1.07478
1.08061
1.08632
1.09173
1.09653
1.10011
1.00211
1.00632
1.01045
1.01464
1.01894
1.02333
1.02778
1.03238
1.03675
1.0411
1.0455
1.04989
1.0542
1.05833
1.06217
1.06554
1.06829
1.07002
1.07041
1.06832
1.00189
1.0057
1.00931
1.01288
1.01656
1.0204
1.02419
1.02769
1.03109
1.03442
1.03761
1.04054
1.04311
1.04514
1.04651
1.04683
1.04595
1.04301
1.03785
1.02833
1.00149
1.00469
1.00779
1.01082
1.01384
1.01672
1.01948
1.02206
1.02443
1.02651
1.02822
1.02936
1.02982
1.02923
1.02752
1.02401
1.01885
1.01039
0.999339
0.980572
1.00128
1.00351
1.0057
1.00797
1.01019
1.01223
1.01403
1.0155
1.01659
1.01715
1.01711
1.01617
1.01423
1.01069
1.00559
0.997403
0.986739
0.969753
0.949604
0.915762
1.00063
1.00207
1.00354
1.00502
1.00636
1.0074
1.00805
1.00822
1.00785
1.00673
1.00476
1.00154
0.996951
0.990188
0.981223
0.968235
0.951633
0.926664
0.894481
0.840462
1.00029
1.00069
1.00125
1.00195
1.00244
1.00246
1.00194
1.0008
0.99899
0.996262
0.9925
0.987246
0.980398
0.971058
0.959247
0.943098
0.923032
0.895202
0.861463
0.816404
1.00005
0.999316
0.998899
0.998814
0.99843
0.997399
0.995687
0.993241
0.990015
0.985743
0.98031
0.973227
0.964419
0.952987
0.939016
0.920811
0.898979
0.870618
0.83786
0.796222
0.999416
0.997993
0.996905
0.995975
0.994591
0.992421
0.98947
0.985698
0.98107
0.975301
0.968281
0.959508
0.948948
0.935726
0.920023
0.900298
0.87737
0.84862
0.816391
0.776032
0.998942
0.99687
0.995231
0.993471
0.991009
0.98762
0.983382
0.978276
0.972271
0.965062
0.956549
0.946229
0.934114
0.919364
0.902262
0.881356
0.857629
0.828545
0.796698
0.757588
0.9985
0.995815
0.99382
0.991343
0.987778
0.983092
0.977515
0.971069
0.963723
0.955144
0.94524
0.933514
0.920027
0.903978
0.885731
0.863908
0.839593
0.810385
0.778981
0.741191
0.997876
0.994818
0.992875
0.98983
0.985094
0.978978
0.971974
0.964174
0.955527
0.945653
0.934458
0.921455
0.906754
0.889598
0.870407
0.847887
0.823161
0.794017
0.763078
0.726506
0.997185
0.993971
0.992569
0.989143
0.983128
0.97539
0.966832
0.957657
0.947756
0.936669
0.924276
0.910116
0.894335
0.876236
0.856263
0.833224
0.80822
0.779251
0.748754
0.713282
0.996356
0.993247
0.992995
0.989433
0.981997
0.972386
0.962124
0.951558
0.940463
0.928249
0.914751
0.899537
0.882794
0.863892
0.843271
0.81985
0.794663
0.765929
0.735847
0.701383
0.995505
0.99279
0.994353
0.990843
0.981729
0.969933
0.957823
0.945884
0.933681
0.920434
0.905914
0.889745
0.872144
0.852561
0.831404
0.807708
0.782404
0.753943
0.724252
0.690719
0.994773
0.993229
0.997319
0.993669
0.982285
0.967898
0.953844
0.940615
0.927419
0.913236
0.897778
0.880748
0.86239
0.842236
0.820638
0.796751
0.771381
0.743214
0.71389
0.681215
0.994062
0.995605
1.00294
0.998258
0.983567
0.966109
0.9501
0.935739
0.921687
0.906661
0.890342
0.872543
0.853531
0.832908
0.810953
0.786944
0.761546
0.733685
0.7047
0.672808
0.993615
1.00032
1.01105
1.00411
0.98507
0.964273
0.946495
0.931246
0.916486
0.900701
0.883604
0.865138
0.845575
0.824579
0.80234
0.778262
0.752864
0.725309
0.696633
0.665452
0.994193
1.00609
1.01873
1.00859
0.985236
0.961707
0.942772
0.927004
0.911707
0.895279
0.877529
0.858531
0.83853
0.81725
0.79479
0.770687
0.745309
0.718053
0.689654
0.65911
0.995257
1.01012
1.02207
1.00852
0.982451
0.957792
0.938655
0.922757
0.907096
0.890208
0.872022
0.852682
0.83238
0.810903
0.788284
0.764193
0.738857
0.711887
0.683734
0.653753
0.99323
1.00673
1.01798
1.00365
0.977366
0.953459
0.934785
0.918738
0.902688
0.885513
0.867139
0.847654
0.827174
0.805571
0.782844
0.758791
0.733512
0.706802
0.678868
0.649363
0.985401
0.983541
0.990974
0.984743
0.968518
0.949669
0.932007
0.915305
0.898675
0.881362
0.863023
0.84355
0.822988
0.801311
0.778518
0.754511
0.729301
0.702807
0.675066
0.645935
0.997608
0.967706
0.946779
0.948212
0.95128
0.944305
0.929423
0.912271
0.895158
0.877876
0.859717
0.840354
0.819797
0.798107
0.775296
0.75134
0.726202
0.699877
0.672309
0.64345
0.999895
0.971419
0.946668
0.943967
0.946086
0.940251
0.92676
0.910258
0.893232
0.875855
0.857624
0.83825
0.817693
0.796005
0.773191
0.749265
0.72418
0.697967
0.670541
0.641885
0.987582
0.98978
0.993197
0.978422
0.957215
0.939305
0.92435
0.909314
0.892936
0.875339
0.856775
0.837259
0.816676
0.794988
0.772168
0.74825
0.723186
0.697029
0.669686
0.641183
0.776595
0.706365
0.63741
0.562342
0.482234
0.402904
0.327036
0.255024
0.187518
0.125917
0.767281
0.694978
0.622529
0.551751
0.477501
0.402983
0.331934
0.264758
0.202239
0.145566
0.751607
0.682802
0.609864
0.542546
0.474563
0.405154
0.33829
0.275331
0.216921
0.16308
0.734898
0.671357
0.599935
0.534534
0.471444
0.406982
0.343975
0.284509
0.229424
0.178379
0.718995
0.660263
0.591605
0.527822
0.468441
0.408581
0.349307
0.292855
0.240599
0.191974
0.70429
0.649622
0.584371
0.522424
0.46582
0.4099
0.354169
0.30046
0.250606
0.204084
0.690807
0.639565
0.57789
0.518071
0.463676
0.410986
0.358503
0.307364
0.2596
0.214909
0.678521
0.630197
0.572011
0.514522
0.462033
0.411947
0.362331
0.313594
0.267702
0.224623
0.667391
0.621563
0.56665
0.511572
0.460833
0.412863
0.3657
0.319175
0.274994
0.233355
0.657358
0.613666
0.561755
0.509073
0.459998
0.413782
0.368679
0.324139
0.281531
0.241198
0.648368
0.606491
0.557291
0.506923
0.459444
0.414717
0.371326
0.328529
0.287356
0.248212
0.640371
0.600022
0.553235
0.50505
0.459099
0.415663
0.373685
0.332384
0.292501
0.254441
0.63333
0.594246
0.549574
0.503405
0.458898
0.416594
0.375778
0.335739
0.296993
0.259912
0.627219
0.589156
0.546305
0.501955
0.458785
0.417474
0.377609
0.338613
0.30085
0.264644
0.622018
0.584759
0.543436
0.500679
0.458709
0.418258
0.379163
0.341014
0.304082
0.268647
0.617733
0.581081
0.540991
0.499568
0.458625
0.418896
0.380412
0.342936
0.30669
0.271921
0.614382
0.578156
0.538991
0.498606
0.458487
0.419336
0.381326
0.344373
0.308679
0.274467
0.611961
0.575977
0.537409
0.497736
0.458213
0.4195
0.381856
0.345312
0.310063
0.276302
0.610445
0.574536
0.536232
0.496901
0.457697
0.419259
0.381879
0.345654
0.310773
0.277404
0.60983
0.573942
0.535661
0.496334
0.457136
0.418737
0.381446
0.34538
0.310705
0.277608
)
;

boundaryField
{
    bottom
    {
        type            symmetryPlane;
    }
    right
    {
        type            fixedValue;
        value           uniform 0;
    }
    top
    {
        type            symmetryPlane;
    }
    left
    {
        type            fixedValue;
        value           uniform 1;
    }
    cylinder
    {
        type            zeroGradient;
    }
    defaultFaces
    {
        type            empty;
    }
}


// ************************************************************************* //
