/*--------------------------------*- C++ -*----------------------------------*\
| =========                 |                                                 |
| \\      /  F ield         | OpenFOAM: The Open Source CFD Toolbox           |
|  \\    /   O peration     | Version:  4.1                                   |
|   \\  /    A nd           | Web:      www.OpenFOAM.org                      |
|    \\/     M anipulation  |                                                 |
\*---------------------------------------------------------------------------*/
FoamFile
{
    version     2.0;
    format      ascii;
    class       surfaceScalarField;
    location    "9";
    object      phi;
}
// * * * * * * * * * * * * * * * * * * * * * * * * * * * * * * * * * * * * * //

dimensions      [0 3 -1 0 0 0 0];

internalField   nonuniform List<scalar> 
3890
(
0.00022456
0.00265679
-0.00288135
0.0021366
0.00150747
-0.00341951
0.00660343
-0.00403164
-0.000435183
0.0141165
-0.0127154
0.00520237
0.0245208
-0.0231406
0.0127363
0.0370506
-0.0338363
0.0213066
0.050617
-0.0436303
0.0300639
0.0643227
-0.0519274
0.0382217
0.0773058
-0.0586806
0.0456975
-0.0631287
0.0519844
0.0884501
0.000503463
0.00215333
0.00345872
-0.00144779
0.00981649
-0.0103894
0.0196497
-0.0225487
0.0319868
-0.0354776
0.0453532
-0.0472027
0.0584239
-0.0567011
0.070327
-0.0638305
0.0804167
-0.0687703
-0.0720422
0.0893302
0.000918051
0.00123528
0.00521203
-0.00574176
0.0136045
-0.0187819
0.0252192
-0.0341633
0.0381462
-0.0484047
0.0506124
-0.0596689
0.0615653
-0.067654
0.0706325
-0.0728977
0.0780559
-0.0761936
-0.078353
0.0843666
0.00146445
-0.000229174
0.00728916
-0.0115665
0.0174072
-0.0289
0.0296571
-0.0464132
0.0416382
-0.0603858
0.0519447
-0.0699753
0.0602169
-0.0759262
0.0667662
-0.079447
0.0721493
-0.0815768
-0.0830482
0.0768445
0.00212758
-0.00235675
0.00945609
-0.018895
0.0204863
-0.0399302
0.0320537
-0.0579806
0.0420475
-0.0703797
0.0498586
-0.0777864
0.0558058
-0.0818733
0.0605134
-0.0841546
0.0645565
-0.0856199
-0.0868784
0.0683866
0.0028801
-0.00523685
0.0113578
-0.0273727
0.0222355
-0.0508079
0.0321723
-0.0679173
0.0398732
-0.0780805
0.0454766
-0.0833899
0.0496506
-0.0860473
0.0530503
-0.0875542
0.0561451
-0.0887147
-0.0898546
0.0591213
0.00363937
-0.00887622
0.0126304
-0.0363638
0.0224477
-0.0606252
0.0303576
-0.0758272
0.0359236
-0.0836465
0.0397435
-0.0872099
0.042572
-0.0888758
0.0449653
-0.0899475
0.0472193
-0.0909688
-0.0920893
0.049454
0.00428093
-0.0131572
0.0130504
-0.0451332
0.0212799
-0.0688547
0.0271562
-0.0817035
0.030892
-0.0873824
0.0332909
-0.0896088
0.0350471
-0.0906319
0.0365685
-0.0914689
0.0380351
-0.0924354
-0.0935419
0.0394878
0.00467961
-0.0178368
0.0125925
-0.0530461
0.0190517
-0.075314
0.0230727
-0.0857244
0.0252813
-0.089591
0.0265176
-0.090845
0.0273503
-0.0914646
0.0280564
-0.0921751
0.0287234
-0.0931023
-0.094187
0.0293685
0.00476124
-0.022598
0.011427
-0.0597119
0.0161135
-0.0800004
0.0185055
-0.0881165
0.019434
-0.0905195
0.019672
-0.091083
0.0196547
-0.0914473
0.0195573
-0.0920777
0.0194228
-0.0929678
0.0192506
-0.0940148
-0.000939432
0.000939432
-0.00275797
0.00181853
-0.00500443
0.00224647
-0.00745985
0.00245542
-0.0100195
0.00255966
-0.0126398
0.00262029
-0.0153099
0.00267011
-0.0180377
0.00272778
-0.0208477
0.00280995
0.00293779
-0.0237854
-0.000826879
0.00176631
-0.00244642
0.00343808
-0.00444823
0.00424828
-0.00661079
0.00461797
-0.00881676
0.00476564
-0.0110058
0.00480931
-0.0131494
0.00481372
-0.0152399
0.00481825
-0.0172864
0.00485646
0.00498327
-0.0193319
-0.000629613
0.00239592
-0.00190105
0.00470951
-0.00346264
0.00580987
-0.00510007
0.00625541
-0.006681
0.00634657
-0.00811971
0.00624802
-0.00935791
0.00605192
-0.0103597
0.00582004
-0.0111069
0.00560363
0.00548013
-0.0116037
-0.000400214
0.00279614
-0.00124426
0.00555356
-0.00225267
0.00681828
-0.00322666
0.0072294
-0.00402563
0.00714554
-0.00454294
0.00676533
-0.00468827
0.00619726
-0.00438612
0.00551789
-0.00357481
0.00479232
0.00415518
-0.00224986
-0.000192208
0.00298835
-0.000609885
0.00597124
-0.00103619
0.00724458
-0.00129145
0.00748465
-0.00123323
0.00708732
-0.000741622
0.00627372
0.000296387
0.00515925
0.00199609
0.00381818
0.00446252
0.00232588
0.000745276
0.00787242
-4.65223e-05
0.00303487
-9.80446e-05
0.00602276
2.56147e-05
0.00712093
0.000502682
0.00700758
0.00148848
0.00610152
0.00312456
0.00463764
0.00554938
0.00273443
0.00889334
0.000474222
0.0132094
-0.00199015
-0.00514162
0.0190963
2.10062e-05
0.00301386
0.000246297
0.00579747
0.000883854
0.00648337
0.00213823
0.00575321
0.00420945
0.0040303
0.00728975
0.00155735
0.0115455
-0.00152133
0.0171209
-0.00510118
0.0238608
-0.00873001
-0.0139781
0.0326972
2.93872e-05
0.00298447
0.000485589
0.00534127
0.00166736
0.0053016
0.00386052
0.00356005
0.00734793
0.000542883
0.0123775
-0.00347225
0.0190901
-0.0082339
0.0275032
-0.0135143
0.0373139
-0.0185407
-0.025785
0.0491209
2.78023e-05
0.00295667
0.000762843
0.00460622
0.00266569
0.00339875
0.00614775
7.79973e-05
0.011572
-0.00488138
0.0191109
-0.0110111
0.0287206
-0.0178436
0.0400463
-0.0248401
0.0528585
-0.0313529
-0.0391659
0.0662394
7.5325e-05
0.00126204
0.0042256
0.00950597
0.0173608
0.0276563
0.0398766
0.0532582
0.0676028
0.0804213
-0.0256163
0.00183087
-0.0273968
0.00178048
-0.0291022
0.00170538
-0.0307247
0.00162255
-0.032254
0.00152924
-0.0336763
0.00142233
-0.0349749
0.00129857
-0.0361293
0.0011544
-0.0371154
0.00098611
-0.0379053
0.000789928
-0.0384672
0.000561892
-0.038764
0.000296804
-0.0387465
-1.74524e-05
-0.038421
-0.00032553
-0.037743
-0.000678049
-0.0366872
-0.00105577
-0.0352529
-0.00143429
-0.0334628
-0.00179007
-0.0313349
-0.00212794
-0.00241415
-0.0208606
0.00335961
-0.0223612
0.00328106
-0.0238019
0.00314609
-0.0251754
0.00299612
-0.0264727
0.00282652
-0.0276818
0.00263137
-0.0287885
0.00240525
-0.029776
0.00214198
-0.0306252
0.00183524
-0.031314
0.00147875
-0.0318183
0.00106618
-0.0321117
0.00059024
-0.0321507
2.15634e-05
-0.0319454
-0.000530908
-0.0314556
-0.00116782
-0.030652
-0.00185932
-0.0295151
-0.00257121
-0.0280458
-0.00325937
-0.0262631
-0.00391064
-0.00445376
-0.0126012
0.00435711
-0.0135927
0.00427253
-0.0145595
0.00411285
-0.0154869
0.00392352
-0.0163643
0.00370396
-0.0171828
0.00344985
-0.017932
0.00315447
-0.0185986
0.0028086
-0.0191677
0.00240437
-0.0196238
0.0019348
-0.0199511
0.00139354
-0.0201345
0.000773608
-0.0201576
4.46166e-05
-0.0200177
-0.00067081
-0.0196978
-0.00148764
-0.0191782
-0.00237897
-0.018431
-0.00331839
-0.0174301
-0.00426026
-0.0161813
-0.00515943
-0.00597429
-0.00250232
0.00460957
-0.00286682
0.00463703
-0.0032419
0.00448792
-0.00360128
0.0042829
-0.0039422
0.00404488
-0.00425703
0.00376468
-0.00453453
0.00343198
-0.00476622
0.00304029
-0.00494045
0.0025786
-0.00504288
0.00203723
-0.00506095
0.00141161
-0.00498511
0.000697767
-0.0048322
-0.000108299
-0.00457265
-0.000930361
-0.00421625
-0.00184403
-0.00376507
-0.00283016
-0.00321228
-0.00387118
-0.00252483
-0.0049477
-0.00168364
-0.00600062
-0.00685446
0.00826248
0.00421952
0.00854306
0.00435645
0.00877762
0.00425336
0.00901049
0.00405004
0.00924291
0.00381246
0.00947563
0.00353196
0.00971898
0.00318862
0.00998425
0.00277503
0.0102767
0.00228611
0.0106086
0.00170533
0.0109916
0.00102869
0.0114457
0.000243653
0.0119152
-0.000577875
0.0124545
-0.00146966
0.0130437
-0.00243323
0.0136706
-0.003457
0.0143164
-0.00451695
0.0149744
-0.00560577
0.0156121
-0.00663828
-0.00768095
0.0199637
0.00335212
0.0207239
0.00359621
0.0214454
0.00353187
0.0221744
0.00332099
0.0229041
0.00308277
0.0236308
0.00280531
0.0243634
0.00245601
0.0251121
0.00202632
0.0258808
0.00151738
0.0266768
0.000909307
0.0275267
0.00017879
0.0283625
-0.000592098
0.0292353
-0.0014507
0.0301431
-0.00237748
0.0310712
-0.00336128
0.0320065
-0.0043923
0.0329195
-0.00542998
0.0338013
-0.00648752
0.0345802
-0.00741723
-0.00849209
0.0336909
0.00235842
0.0346437
0.00264346
0.0356153
0.00256022
0.0366332
0.0023031
0.0376751
0.00204089
0.0387401
0.00174028
0.0398352
0.0013609
0.0409652
0.000896372
0.0421408
0.000341733
0.0433492
-0.000299108
0.0445519
-0.00102386
0.0457911
-0.00183131
0.0470505
-0.00271008
0.0483233
-0.00365034
0.0495943
-0.00463222
0.050849
-0.00564707
0.0520553
-0.00663625
0.0532075
-0.00763968
0.0542366
-0.00844637
-0.00944825
0.0499008
0.00157857
0.0507783
0.00176594
0.0517892
0.0015493
0.0528782
0.00121408
0.0540235
0.000895606
0.0552416
0.000522195
0.0565279
7.46306e-05
0.057895
-0.000470709
0.0593071
-0.00107041
0.0607601
-0.00175211
0.062249
-0.00251281
0.0637629
-0.0033452
0.0652906
-0.00423776
0.0668182
-0.00517792
0.0683264
-0.00614046
0.0697979
-0.00711855
0.0712035
-0.00804181
0.0725287
-0.00896495
0.0737441
-0.00966178
-0.0105292
0.066808
0.00101004
0.0676614
0.000912529
0.0687232
0.000487526
0.0698326
0.000104595
0.0710299
-0.000301607
0.0723325
-0.000780454
0.0737293
-0.00132219
0.0751786
-0.00191993
0.0766829
-0.00257481
0.0782315
-0.0033007
0.079813
-0.00409423
0.0814138
-0.00494606
0.0830189
-0.00584282
0.0846127
-0.00677176
0.0861747
-0.0077024
0.0876872
-0.00863105
0.0891275
-0.00948213
0.0904737
-0.0103112
0.0917256
-0.0109136
-0.0116304
0.0812717
0.000159601
0.0825549
-0.000370638
0.0838178
-0.00077541
0.0850838
-0.00116139
0.0864025
-0.00162029
0.0877568
-0.00213476
0.089141
-0.00270641
0.090561
-0.0033399
0.0920205
-0.00403432
0.0935111
-0.00479133
0.0950224
-0.0056055
0.0965456
-0.00646929
0.0980661
-0.00736327
0.0995738
-0.00827952
0.101049
-0.00917742
0.102483
-0.0100651
0.103855
-0.0108546
0.10516
-0.0116158
0.106389
-0.0121422
-0.0127039
0.109915
0.000698679
-0.110454
0.109428
0.000116652
0.109005
-0.000352744
0.108749
-0.000905595
0.108628
-0.00149932
0.108617
-0.00212383
0.108692
-0.00278146
0.108826
-0.00347381
0.108994
-0.00420221
0.109172
-0.00496946
0.109336
-0.00576865
0.109463
-0.00659674
0.109531
-0.0074316
0.109525
-0.00827362
0.109425
-0.00907741
0.109225
-0.0098646
0.108912
-0.0105414
0.10849
-0.0111944
0.107964
-0.0116162
-0.0120407
0.118074
0.000806934
-0.118182
0.117902
0.000288278
0.117806
-0.000256342
0.117738
-0.000837329
0.117695
-0.00145694
0.117676
-0.00210421
0.117667
-0.00277268
0.117658
-0.00346532
0.117638
-0.00418168
0.117593
-0.00492426
0.117507
-0.00568299
0.117369
-0.00645843
0.117163
-0.0072256
0.116881
-0.00799179
0.116512
-0.00870833
0.116054
-0.00940684
0.115505
-0.00999185
0.114867
-0.0105573
0.114158
-0.0109068
-0.0112952
0.122908
0.00095854
-0.12306
0.122861
0.000335937
0.122866
-0.000261884
0.122889
-0.00086024
0.122907
-0.00147464
0.122912
-0.00210907
0.122898
-0.0027591
0.122859
-0.00342607
0.122784
-0.00410683
0.122664
-0.00480446
0.122488
-0.00550717
0.122249
-0.00621888
0.121936
-0.00691295
0.121547
-0.00760251
0.121075
-0.00823666
0.120524
-0.00885561
0.119894
-0.009362
0.119197
-0.00986038
0.11845
-0.0101596
-0.0105114
0.126141
0.000988754
-0.126171
0.126156
0.000320662
0.126201
-0.000306649
0.126249
-0.00090811
0.126281
-0.00150733
0.126291
-0.00211856
0.126272
-0.00273975
0.126217
-0.00337159
0.126119
-0.00400889
0.12597
-0.00465542
0.125762
-0.00529875
0.125488
-0.00594549
0.125144
-0.00656874
0.124727
-0.00718578
0.124236
-0.00774549
0.123674
-0.00829382
0.123046
-0.00873396
0.122363
-0.00917683
0.121637
-0.00943367
-0.00975375
0.128634
0.0009087
-0.128554
0.128701
0.000254591
0.128768
-0.000373688
0.128826
-0.000966376
0.128864
-0.00154587
0.128874
-0.00212802
0.128848
-0.00271434
0.128783
-0.00330641
0.128672
-0.00389798
0.12851
-0.00449294
0.12829
-0.00507884
0.128008
-0.0056639
0.127662
-0.00622209
0.127249
-0.00677306
0.126771
-0.00726739
0.12623
-0.00775338
0.125634
-0.00813778
0.124989
-0.00853149
0.124309
-0.00875354
-0.00904599
0.130976
0.000786382
-0.130854
0.131069
0.00016122
0.131144
-0.00044801
0.131201
-0.00102381
0.131234
-0.00157916
0.131235
-0.00212906
0.131199
-0.00267785
0.131121
-0.00322857
0.130998
-0.00377473
0.130825
-0.00432002
0.130598
-0.00485226
0.130315
-0.00538045
0.129973
-0.00588011
0.129572
-0.00637185
0.129113
-0.00680913
0.1286
-0.00724011
0.128039
-0.00757705
0.127435
-0.00792693
0.126802
-0.00812041
-0.00838569
0.133426
0.000652072
-0.133292
0.133526
6.1012e-05
0.133597
-0.000518719
0.133642
-0.00106923
0.133659
-0.00159615
0.133643
-0.00211235
0.133588
-0.00262314
0.133492
-0.00313267
0.133352
-0.00363485
0.133165
-0.00413313
0.132929
-0.00461584
0.132641
-0.00509213
0.1323
-0.00553942
0.131906
-0.00597826
0.131463
-0.00636564
0.130971
-0.00674797
0.130438
-0.00704413
0.129866
-0.00735481
0.129269
-0.00752409
-0.00776252
0.136029
0.000515621
-0.135892
0.136124
-3.42325e-05
0.136182
-0.000577069
0.136209
-0.00109563
0.136203
-0.00159063
0.136163
-0.00207208
0.136085
-0.00254499
0.135966
-0.00301404
0.135805
-0.00347385
0.1356
-0.00392769
0.135349
-0.0043646
0.13505
-0.00479346
0.134704
-0.00519369
0.134311
-0.0055851
0.133874
-0.0059285
0.133393
-0.00626754
0.132878
-0.00652829
0.132326
-0.00680365
0.131754
-0.00695204
-0.0071647
0.138734
0.000387598
-0.138606
0.138815
-0.00011601
0.138856
-0.000617721
0.13886
-0.00109998
0.13883
-0.00156024
0.138764
-0.00200581
0.13866
-0.00244084
0.138516
-0.00287008
0.138331
-0.00328894
0.138104
-0.00370051
0.137834
-0.00409468
0.13752
-0.00447982
0.137164
-0.00483731
0.136764
-0.00518582
0.136326
-0.00549003
0.135849
-0.00579021
0.13534
-0.0060198
0.1348
-0.00626316
0.134241
-0.00639326
-0.00658159
0.141464
0.000277553
-0.141354
0.141527
-0.000179316
0.141547
-0.000637795
0.141528
-0.00108104
0.141472
-0.00150434
0.141379
-0.00191284
0.141248
-0.00230984
0.141078
-0.00269984
0.140868
-0.0030789
0.140618
-0.00344997
0.140327
-0.00380385
0.139995
-0.00414822
0.139624
-0.00446643
0.139214
-0.00477569
0.138769
-0.0050445
0.138288
-0.00530945
0.137779
-0.00551121
0.137242
-0.00572543
0.136688
-0.00583931
-0.00600493
0.144147
0.000189206
-0.144059
0.144189
-0.000221174
0.144187
-0.000635707
0.144144
-0.00103818
0.144063
-0.00142287
0.143943
-0.00179333
0.143785
-0.00215213
0.143589
-0.00250335
0.143354
-0.00284358
0.143079
-0.00317559
0.142766
-0.00349111
0.142415
-0.00379708
0.142028
-0.00407875
0.141604
-0.0043517
0.141147
-0.00458813
0.140659
-0.0048208
0.140145
-0.00499739
0.139604
-0.00518491
0.139049
-0.00528423
-0.00542879
0.146719
0.000123909
-0.146654
0.146738
-0.000240464
0.146713
-0.000610586
0.146646
-0.000971262
0.14654
-0.0013163
0.146394
-0.0016481
0.146211
-0.00196861
0.145989
-0.00228145
0.145729
-0.00258369
0.145431
-0.00287781
0.145097
-0.00315653
0.144726
-0.00342602
0.14432
-0.00367332
0.143881
-0.00391233
0.143411
-0.00411878
0.142912
-0.00432158
0.14239
-0.00447513
0.141843
-0.00463803
0.141283
-0.0047241
-0.00484922
0.14912
8.1588e-05
-0.149078
0.149117
-0.000237403
0.149069
-0.000563016
0.14898
-0.000881364
0.148849
-0.00118616
0.14868
-0.00147891
0.148473
-0.00176111
0.148227
-0.00203592
0.147944
-0.00230084
0.147625
-0.00255806
0.147269
-0.00280124
0.146879
-0.00303575
0.146456
-0.00325042
0.146001
-0.00345737
0.145518
-0.00363574
0.145007
-0.00381063
0.144475
-0.0039428
0.14392
-0.00408284
0.143352
-0.00415671
-0.00426387
0.151294
5.98707e-05
-0.151272
0.151271
-0.000214555
0.151204
-0.000495782
0.151094
-0.000771462
0.150943
-0.00103557
0.150753
-0.00128897
0.150525
-0.00153284
0.150259
-0.00176986
0.149956
-0.00199795
0.149617
-0.00221897
0.149243
-0.00242754
0.148836
-0.00262821
0.148397
-0.00281154
0.147927
-0.00298787
0.147431
-0.0031396
0.146909
-0.00328809
0.146366
-0.00340017
0.145802
-0.00351873
0.145226
-0.00358124
-0.00367168
0.153187
5.30375e-05
-0.153181
0.15315
-0.000177452
0.153069
-0.000414277
0.152944
-0.000646849
0.152778
-0.000869713
0.152573
-0.00108333
0.152329
-0.00128862
0.152047
-0.00148784
0.151728
-0.00167927
0.151373
-0.00186446
0.150985
-0.00203894
0.150563
-0.00220648
0.150111
-0.00235929
0.149629
-0.00250599
0.149121
-0.00263205
0.148588
-0.00275519
0.148036
-0.00284808
0.147464
-0.00294617
0.14688
-0.00299787
-0.00307252
0.154762
5.2619e-05
-0.154762
0.154719
-0.000133946
0.154631
-0.000325901
0.154498
-0.000514574
0.154324
-0.000695277
0.154109
-0.000868323
0.153855
-0.00103444
0.153562
-0.00119545
0.153233
-0.00134996
0.152868
-0.00149924
0.152468
-0.00163968
0.152036
-0.00177433
0.151574
-0.00189697
0.151082
-0.00201451
0.150566
-0.00211541
0.150024
-0.00221382
0.149464
-0.00228802
0.148884
-0.00236624
0.148294
-0.0024075
-0.00246692
0.156004
4.9976e-05
-0.156001
0.155962
-9.16386e-05
0.155874
-0.000237915
0.155741
-0.00038139
0.155564
-0.000518598
0.155346
-0.000649948
0.155087
-0.000775923
0.154789
-0.000897933
0.154454
-0.00101487
0.154083
-0.00112775
0.153677
-0.00123379
0.153238
-0.00133538
0.152769
-0.00142775
0.152271
-0.00151623
0.151747
-0.00159206
0.151199
-0.00166599
0.150633
-0.00172166
0.150047
-0.0017803
0.149451
-0.00181126
-0.00185572
0.156922
4.11071e-05
-0.156913
0.156885
-5.51408e-05
0.156802
-0.000154583
0.156672
-0.000251282
0.156497
-0.000343562
0.156279
-0.00043199
0.15602
-0.000516716
0.155721
-0.00059879
0.155383
-0.000677301
0.155008
-0.000753138
0.154599
-0.000824187
0.154156
-0.000892348
0.153682
-0.000954095
0.153179
-0.00101339
0.152651
-0.00106396
0.152099
-0.00111346
0.151528
-0.00115053
0.150937
-0.00118971
0.150336
-0.00121032
-0.00123994
0.157532
2.66274e-05
-0.157517
0.157502
-2.53358e-05
0.157424
-7.61925e-05
0.157297
-0.000124649
0.157124
-0.000170987
0.156908
-0.000215522
0.156649
-0.000258052
0.15635
-0.000299429
0.156011
-0.000338777
0.155635
-0.000377043
0.155224
-0.000412502
0.154778
-0.000446956
0.154302
-0.00047758
0.153796
-0.000507716
0.153265
-0.000532525
0.152709
-0.000557964
0.152134
-0.000575713
0.151541
-0.000596305
0.150936
-0.000605465
-0.000621138
0.157839
-0.157812
0.157814
0.157737
0.157613
0.157442
0.157226
0.156968
0.156669
0.15633
0.155953
0.15554
0.155093
0.154616
0.154108
0.153576
0.153018
0.152442
0.151846
0.15124
0.0968339
0.0176539
-0.0952372
0.098615
0.0275873
0.100615
0.0374881
0.102785
0.0472835
0.105193
0.0567132
0.107744
0.0658354
0.110144
0.0744445
0.112768
0.0817434
0.112159
0.0899393
0.0901546
0.0981886
0.0161873
-0.096722
0.0998874
0.0258885
0.101863
0.0355127
0.104107
0.0450389
0.106531
0.0542899
0.109424
0.062942
0.111999
0.0718692
0.115489
0.0782539
0.117827
0.0876015
0.089799
0.0997662
0.0148633
-0.0984422
0.101382
0.0242731
0.103263
0.0336309
0.105541
0.0427608
0.107932
0.0518994
0.11094
0.0599341
0.113836
0.0689732
0.117217
0.0748726
0.120973
0.083846
0.0877119
0.101485
0.0136605
-0.100282
0.10304
0.0227176
0.10485
0.031821
0.107111
0.0404996
0.109541
0.0494694
0.112452
0.057024
0.115644
0.065781
0.118801
0.0717151
0.122887
0.0797598
0.0844282
0.103296
0.0125495
-0.102185
0.104799
0.0212141
0.106597
0.0300232
0.108814
0.038283
0.111342
0.0469409
0.11414
0.0542262
0.117481
0.0624404
0.120681
0.0685145
0.124715
0.0757263
0.0805886
0.105159
0.0115038
-0.104114
0.106611
0.0197624
0.108433
0.028201
0.110621
0.0360952
0.113246
0.0443162
0.116053
0.0514191
0.11945
0.059043
0.12285
0.0651146
0.126811
0.0717658
0.0765459
0.107036
0.0105083
-0.106041
0.108445
0.0183537
0.110295
0.0263508
0.112497
0.0338937
0.115193
0.0416199
0.118111
0.0485009
0.121551
0.0556031
0.125144
0.0615214
0.12913
0.0677801
0.0723839
0.108892
0.00955863
-0.107942
0.110274
0.0169719
0.112143
0.0244813
0.114394
0.0316426
0.117149
0.0388655
0.120206
0.0454436
0.123717
0.0520919
0.127477
0.0577615
0.131588
0.063669
0.0680797
0.110698
0.00865422
-0.109793
0.112068
0.0156021
0.113952
0.0225969
0.116268
0.029327
0.119084
0.0360494
0.122273
0.042254
0.125898
0.0484674
0.129826
0.0538337
0.134119
0.059375
0.0635936
0.112429
0.00779257
-0.111567
0.113795
0.0142355
0.115697
0.0206953
0.118078
0.0269459
0.120968
0.0331595
0.124283
0.038939
0.128049
0.0447011
0.132154
0.0497292
0.136652
0.0548772
0.0588915
0.114058
0.00696835
-0.113234
0.115426
0.0128679
0.117351
0.0187706
0.119796
0.0245008
0.12277
0.0301854
0.126208
0.0355011
0.130125
0.0407834
0.13441
0.045444
0.139118
0.0501695
0.0539507
0.115555
0.00617432
-0.114761
0.116927
0.0114959
0.118881
0.0168169
0.121389
0.0219928
0.124452
0.0271223
0.128011
0.031942
0.132079
0.0367157
0.136546
0.0409768
0.141464
0.0452513
0.0487612
0.116886
0.00540215
-0.116113
0.118266
0.0101159
0.120253
0.0148295
0.122824
0.0194218
0.125976
0.0239701
0.129654
0.0282641
0.133868
0.032502
0.138515
0.0363292
0.14364
0.0401266
0.0433235
0.118017
0.00464258
-0.117257
0.11941
0.00872303
0.121434
0.0128053
0.124067
0.0167885
0.127306
0.0207313
0.131099
0.0244714
0.135452
0.0281491
0.140273
0.0315076
0.145595
0.034805
0.0376464
0.118925
0.00388577
-0.118168
0.120336
0.00731229
0.122399
0.0107425
0.125092
0.0140947
0.128413
0.0174109
0.132313
0.0205712
0.136795
0.0236673
0.141778
0.0265245
0.147281
0.0293022
0.0317465
0.119609
0.00312276
-0.118846
0.121042
0.00587991
0.123143
0.00864167
0.125892
0.0113451
0.129286
0.0140176
0.133281
0.0165755
0.137876
0.0190725
0.143002
0.0213987
0.148664
0.0236401
0.0256486
0.120099
0.00234868
-0.119325
0.121553
0.00442581
0.123688
0.00650732
0.126485
0.00854802
0.129939
0.0105639
0.134014
0.0125005
0.138701
0.0143849
0.143945
0.0161545
0.149739
0.0178468
0.0193858
0.120443
0.001566
-0.119661
0.121914
0.00295525
0.124073
0.00434818
0.126905
0.00571563
0.130404
0.00706539
0.134539
0.00836574
0.139296
0.00962779
0.14463
0.0108199
0.150523
0.0119536
0.0129962
0.120678
0.000783052
-0.119895
0.122156
0.00147704
0.124328
0.00217574
0.127182
0.00286198
0.130708
0.00353891
0.134882
0.00419213
0.139685
0.00482505
0.14508
0.00542502
0.15104
0.00599341
0.00651855
0.120804
-0.120021
0.122281
0.124457
0.127319
0.130858
0.13505
0.139875
0.1453
0.151294
0.0463309
0.0600063
-0.0542016
-0.0521356
0.0402774
0.0595616
-0.0535081
0.0344228
0.0595336
-0.053679
0.0287231
0.0600209
-0.0543212
0.023108
0.0609458
-0.0553308
0.0175402
0.0623402
-0.0567724
0.012015
0.0641958
-0.0586706
0.00669031
0.0654428
-0.0601182
0.00219832
0.0609228
-0.0564308
0.0364054
-0.0342071
0.0431695
0.0658993
-0.0490624
0.0373592
0.0653718
0.0317141
0.0651787
0.0262515
0.0654835
0.0209098
0.0662874
0.015635
0.0676151
0.0104387
0.0693921
0.0055393
0.0703422
0.00162596
0.0648361
0.0380314
0.0393411
0.0714173
-0.0448592
0.0338465
0.0708665
0.028476
0.0705492
0.0232845
0.0706751
0.0182451
0.0713268
0.0133119
0.0725483
0.00851979
0.0741842
0.00414945
0.0747126
0.000934309
0.0680513
0.0389657
0.0345646
0.0765014
-0.0396487
0.0295214
0.0759096
0.0245598
0.0755109
0.0197484
0.0754864
0.0150932
0.075982
0.0105708
0.0770707
0.00625124
0.0785038
0.00251794
0.0784459
7.38997e-05
0.0704953
0.0390396
0.0289117
0.0811078
-0.0335182
0.0243737
0.0804476
0.01992
0.0799646
0.0155988
0.0798076
0.0114248
0.0801561
0.00740261
0.0810928
0.00364057
0.0822658
0.000586067
0.0815004
-0.000692751
0.0717741
0.0383469
0.0223972
0.085147
-0.0264363
0.018448
0.0843968
0.0145891
0.0838235
0.0108498
0.0835469
0.007251
0.0837548
0.00383081
0.084513
0.000784566
0.085312
-0.00133137
0.0836163
-0.00155289
0.0719957
0.036794
0.015126
0.0885144
-0.0184934
0.0118424
0.0876804
0.00864801
0.0870179
0.00555966
0.0866353
0.00261781
0.0866967
-0.000121753
0.0872526
-0.00235551
0.0875458
-0.0033968
0.0846576
-0.00242622
0.0710251
0.0343677
0.00718784
0.091137
-0.00981047
0.00462748
0.0902407
0.00217355
0.0894718
-0.000179563
0.0889884
-0.00244131
0.0889584
-0.00442272
0.089234
-0.00572794
0.088851
-0.00558443
0.0845141
-0.00326341
0.0687041
0.0311043
-0.00131345
0.0930794
-0.000628916
-0.00308725
0.0920145
-0.00478534
0.0911699
-0.00641119
0.0906142
-0.00788055
0.0904278
-0.00900088
0.0903543
-0.00924535
0.0890955
-0.0077483
0.083017
-0.0039901
0.0649459
0.0271142
-0.0102314
0.00929601
-0.0111847
-0.0120924
-0.0129254
-0.0135807
-0.0137459
-0.0127668
-0.00975017
-0.00451624
0.045656
0.00430286
-0.0499589
0.0411931
0.00446294
0.0365442
0.00464891
0.0316857
0.00485851
0.0265857
0.00509998
0.0212015
0.00538421
0.015486
0.00571544
0.00947102
0.006015
0.00365397
0.00581705
0.00365397
0.0460354
0.00870976
-0.0504423
0.0414817
0.00901662
0.0367557
0.00937493
0.0318337
0.00978051
0.0266834
0.0102503
0.0212613
0.0108063
0.0155177
0.011459
0.00948168
0.012051
0.00366219
0.0116365
0.00731616
0.0467368
0.0133133
-0.0513403
0.0420116
0.0137418
0.0371398
0.0142468
0.0320971
0.0148231
0.0268507
0.0154967
0.0213558
0.0163012
0.0155621
0.0172528
0.00949726
0.0181158
0.00366204
0.0174718
0.0109782
0.0476502
0.0181801
-0.0525169
0.0426948
0.0186971
0.0376266
0.019315
0.0324216
0.0200282
0.0270462
0.020872
0.0214551
0.0218923
0.0155967
0.0231112
0.00949718
0.0242154
0.00365292
0.023316
0.0146311
0.0486262
0.0233463
-0.0537924
0.0434068
0.0239164
0.0381134
0.0246085
0.0327243
0.0254173
0.027206
0.0263904
0.0215109
0.0275873
0.0155863
0.0290359
0.00945881
0.0303428
0.00362264
0.0291522
0.0182538
0.0495088
0.0288021
-0.0549646
0.0440266
0.0293986
0.0385028
0.0301323
0.0329251
0.0309949
0.0272633
0.0320522
0.0214693
0.0333813
0.0154897
0.0350155
0.00935435
0.0364782
0.00355769
0.0349489
0.0218114
0.050077
0.0345352
-0.0558101
0.0443396
0.0351361
0.03861
0.0358619
0.0328808
0.0367241
0.0271117
0.0378213
0.0212511
0.0392419
0.0152499
0.0410167
0.00914767
0.0425804
0.00344373
0.0406528
0.0252552
0.0503527
0.0404789
-0.0562964
0.0443663
0.0411224
0.0384494
0.0417789
0.032591
0.0425825
0.0267349
0.0436773
0.0208309
0.0451459
0.0148387
0.0470089
0.00881466
0.0486044
0.00327541
0.046192
0.0285306
0.0496872
0.0468235
-0.0560318
0.0435255
0.0472841
0.0376034
0.047701
0.0317624
0.0484235
0.0259316
0.0495081
0.0200794
0.0509981
0.014178
0.0529103
0.00830808
0.0544744
0.00301679
0.0514833
0.0315474
0.0487079
-0.056086
0.0424839
0.0365059
0.0306083
0.0247856
0.0190113
0.013251
0.00760723
0.00265975
0.0543312
-0.000194005
0.054523
-0.000191807
0.0547123
-0.000189341
0.0548926
-0.000180268
0.0550576
-0.000165018
0.0552018
-0.000144157
0.0553191
-0.00011739
0.055403
-8.38719e-05
0.0554451
-4.20331e-05
0.0554359
9.18286e-06
0.0553748
6.10459e-05
0.0552495
0.000125286
0.0550476
0.000201922
0.0547552
0.000292458
0.0543562
0.000399003
0.0538317
0.000524424
0.0531602
0.000671493
0.0523141
0.000846177
0.051268
0.00104609
0.00130909
0.0550702
-0.000388021
0.0552591
-0.000380642
0.0554418
-0.000372065
0.0556138
-0.000352241
0.0557699
-0.000321177
0.0559048
-0.000279058
0.0560124
-0.000224992
0.0560858
-0.000157214
0.0561161
-7.23995e-05
0.0560971
2.82193e-05
0.0560245
0.000133701
0.0558864
0.000263289
0.0556707
0.000417677
0.0553632
0.000599965
0.0549479
0.000814343
0.0544056
0.00106665
0.0537149
0.00136223
0.0528474
0.00171372
0.0517789
0.00211454
0.00264572
0.0565241
-0.000562861
0.0566944
-0.000550976
0.056859
-0.000536664
0.0570124
-0.000505586
0.057149
-0.000457803
0.0572633
-0.000393357
0.0573491
-0.000310818
0.0573992
-0.000207325
0.0574047
-7.78342e-05
0.0573639
6.89927e-05
0.0572663
0.0002313
0.057101
0.000428535
0.0568558
0.000662873
0.0565166
0.000939263
0.056067
0.0012639
0.0554877
0.00164592
0.0547574
0.00209259
0.053846
0.00262505
0.0527327
0.00322791
0.00403804
0.0586329
-0.000703427
0.0587689
-0.000686903
0.0588988
-0.000666613
0.0590172
-0.000623938
0.059118
-0.000558671
0.0591955
-0.000470844
0.0592434
-0.00035868
0.0592535
-0.000217486
0.0592144
-3.8684e-05
0.0591352
0.000148212
0.058995
0.000371486
0.0587838
0.000639681
0.0584898
0.000956931
0.0580984
0.00133066
0.0575935
0.00176881
0.0569547
0.00228467
0.0561615
0.00288579
0.0551808
0.00360578
0.0539974
0.00441129
0.00551851
0.0613152
-0.000788707
0.0613957
-0.000767392
0.0614692
-0.000740127
0.0615302
-0.000684882
0.0615722
-0.000600731
0.0615891
-0.000487758
0.0615736
-0.000343107
0.061518
-0.000161939
0.0614225
5.68838e-05
0.0612793
0.000291382
0.0610717
0.000579052
0.0607898
0.000921572
0.0604218
0.00132492
0.0599527
0.00179977
0.0593667
0.00235485
0.0586417
0.00300969
0.057759
0.00376846
0.0566797
0.00468511
0.0553986
0.00569237
0.00712471
0.0644751
-0.000792095
0.0644731
-0.000765371
0.0644616
-0.000728607
0.0644357
-0.000658982
0.0643895
-0.000554515
0.0643172
-0.000415451
0.0642122
-0.000238087
0.0640523
-2.12798e-06
0.0638766
0.000232643
0.0636375
0.000530479
0.0633316
0.000884889
0.0629487
0.00130452
0.0624769
0.00179673
0.0618998
0.00237691
0.0612026
0.00305199
0.0603599
0.00385241
0.0593572
0.00477116
0.0581456
0.00589674
0.0567355
0.00710243
0.00889564
0.0680142
-0.000681161
0.0678955
-0.000646662
0.0677624
-0.000595546
0.0676114
-0.000508023
0.0674391
-0.000382193
0.067238
-0.000214308
0.066988
1.19127e-05
0.0667372
0.000248603
0.0664233
0.000546621
0.0660499
0.00090389
0.0656092
0.00132557
0.0650885
0.00182519
0.0644774
0.00240784
0.0637568
0.00309755
0.0629157
0.00389311
0.0619217
0.00484638
0.0607701
0.00592276
0.0593925
0.00727437
0.0578179
0.00867701
0.0109034
0.0718418
-0.0003997
0.0715609
-0.000365766
0.0712629
-0.000297523
0.070943
-0.000188105
0.0705895
-2.86605e-05
0.070217
0.000158154
0.0698329
0.000395976
0.0693949
0.00068668
0.068907
0.00103447
0.0683598
0.00145111
0.0677453
0.00194005
0.0670484
0.00252211
0.0662611
0.00319514
0.0653576
0.00400105
0.0643339
0.00491674
0.0631449
0.00603542
0.0618094
0.00725821
0.0602339
0.00884993
0.0584863
0.0104246
0.0130932
0.075878
8.44427e-05
0.0753788
0.000133459
0.0748564
0.000224942
0.0743148
0.000353462
0.0737633
0.000522867
0.0731827
0.000738707
0.07257
0.0010087
0.0719155
0.00134119
0.071213
0.00173695
0.0704509
0.00221323
0.069623
0.00276796
0.0687109
0.00343421
0.0677131
0.0041929
0.0665957
0.0051185
0.0653655
0.00614691
0.063947
0.00745393
0.0623947
0.00881048
0.060516
0.0107287
0.0585417
0.0123989
0.0156032
0.0800841
0.000909978
0.0792866
0.000931013
0.0784936
0.00101788
0.0776898
0.00115731
0.0768697
0.00134292
0.0760263
0.0015822
0.0751547
0.0018802
0.0742456
0.00225034
0.0732914
0.00269112
0.0722782
0.00322649
0.0712021
0.00384406
0.0700403
0.00459599
0.0687997
0.00543351
0.0674356
0.00648256
0.065999
0.00758354
0.06438
0.00907291
0.0627547
0.0104358
0.060772
0.0127114
0.0589817
0.0141892
0.0184989
0.0780145
0.000861462
0.0780114
0.000934109
0.0779916
0.00103771
0.0779713
0.00117756
0.0779564
0.00135786
0.0779468
0.00159183
0.0779445
0.00188249
0.0779492
0.00224561
0.0779665
0.00267379
0.0779953
0.00319776
0.0780497
0.00378958
0.0781241
0.00452158
0.0782537
0.00530399
0.0784156
0.00632065
0.0786994
0.00729971
0.0790271
0.00874522
0.0796266
0.00983628
0.0803349
0.012003
0.0818246