/*--------------------------------*- C++ -*----------------------------------*\
| =========                 |                                                 |
| \\      /  F ield         | OpenFOAM: The Open Source CFD Toolbox           |
|  \\    /   O peration     | Version:  4.1                                   |
|   \\  /    A nd           | Web:      www.OpenFOAM.org                      |
|    \\/     M anipulation  |                                                 |
\*---------------------------------------------------------------------------*/
FoamFile
{
    version     2.0;
    format      ascii;
    class       volVectorField;
    location    "9";
    object      U;
}
// * * * * * * * * * * * * * * * * * * * * * * * * * * * * * * * * * * * * * //

dimensions      [0 1 -1 0 0 0 0];

internalField   nonuniform List<vector> 
2000
(
(-0.0434444 0.0364392 2.88685e-20)
(-0.0290938 0.0475778 0)
(0.072617 0.0373967 4.39074e-20)
(0.248674 0.0204812 1.91766e-20)
(0.481325 0.00625961 -3.57066e-20)
(0.742313 -0.00190106 -4.75216e-20)
(1.00361 -0.00251569 1.48427e-20)
(1.23533 -0.00267487 0)
(1.45193 0.00700155 -1.21576e-20)
(1.58268 0.00370192 0)
(-0.0400691 0.0297731 -1.42254e-20)
(0.0125356 0.0261744 1.2201e-20)
(0.180085 0.0103753 -4.81469e-20)
(0.435161 -0.00314607 -6.25288e-20)
(0.73578 -0.00734727 -9.99369e-22)
(1.03452 -0.00299743 1.5494e-20)
(1.2963 0.00634197 -1.53921e-20)
(1.50626 0.014531 -1.3248e-20)
(1.66388 0.0251418 1.21569e-20)
(1.75249 0.0198577 2.09628e-20)
(-0.0295416 0.0209464 1.6079e-20)
(0.0803039 0.00296792 -1.50606e-20)
(0.332635 -0.0119042 2.43008e-20)
(0.66824 -0.013671 -1.68486e-21)
(1.01212 -0.00306117 1.89004e-20)
(1.30817 0.0130262 1.67789e-20)
(1.5335 0.0283453 1.49084e-20)
(1.68904 0.0383018 1.32477e-20)
(1.78757 0.0447299 1.1123e-20)
(1.85206 0.0399863 -9.60126e-21)
(-0.00902905 0.010182 -7.14567e-22)
(0.17985 -0.0189349 -1.6698e-20)
(0.527931 -0.0230028 0)
(0.923732 -0.00651556 2.11407e-20)
(1.26979 0.0179577 -2.15293e-20)
(1.52538 0.0401119 0)
(1.69285 0.0550823 0)
(1.79316 0.0615418 0)
(1.85398 0.0638747 -1.11236e-20)
(1.88555 0.0568905 1.82171e-20)
(0.0245169 -0.00155204 4.18695e-20)
(0.313704 -0.0339119 7.74868e-23)
(0.75108 -0.0169994 1.59317e-20)
(1.16837 0.0180973 1.15376e-20)
(1.47822 0.050224 1.10358e-20)
(1.67481 0.071665 8.97567e-21)
(1.78697 0.0820114 0)
(1.84868 0.0841418 5.81853e-21)
(1.88384 0.0820326 -2.30374e-20)
(1.90986 0.0732839 2.98163e-20)
(0.0736795 -0.0120093 -6.73316e-20)
(0.477915 -0.034769 2.02231e-21)
(0.977139 0.00816206 -3.17011e-20)
(1.37575 0.0560411 2.80745e-20)
(1.62879 0.0884978 -3.18156e-20)
(1.76782 0.104767 1.05326e-20)
(1.83831 0.109335 0)
(1.87511 0.106931 -5.81905e-21)
(1.89988 0.101082 4.6437e-21)
(1.92111 0.0921754 1.12126e-20)
(0.139442 -0.0179412 0)
(0.659906 -0.016196 0)
(1.18226 0.0502315 -1.67593e-20)
(1.53534 0.102827 1.56014e-20)
(1.72834 0.130166 -1.02592e-20)
(1.82021 0.139172 9.63203e-21)
(1.86212 0.137614 1.17027e-20)
(1.8855 0.130896 -1.10619e-20)
(1.9047 0.121965 -6.16638e-21)
(1.92519 0.112266 2.94214e-21)
(0.220397 -0.0157464 1.4335e-20)
(0.841649 0.0228999 0)
(1.35244 0.10537 -7.79564e-21)
(1.64839 0.155402 2.93226e-20)
(1.78739 0.174146 -1.75979e-20)
(1.84401 0.174921 0)
(1.86816 0.167339 0)
(1.88446 0.156453 0)
(1.90209 0.14467 -3.98053e-21)
(1.92253 0.134167 3.78381e-21)
(0.312018 -0.00248812 -7.36454e-21)
(1.00639 0.0797504 -3.31231e-22)
(1.48286 0.169866 -9.5352e-21)
(1.72061 0.211723 3.42935e-21)
(1.8152 0.219766 3.2435e-21)
(1.84731 0.212031 4.10891e-21)
(1.86109 0.198553 0)
(1.87443 0.183566 -4.54586e-22)
(1.8916 0.169156 -7.36229e-22)
(1.91207 0.156892 6.06147e-22)
(0.407287 0.0233103 0)
(1.14326 0.149858 -6.19708e-21)
(1.57369 0.24034 0)
(1.75832 0.270248 -2.01946e-21)
(1.81869 0.266455 -1.8638e-21)
(1.83474 0.2502 -1.69944e-21)
(1.84308 0.230891 0)
(1.8555 0.211762 4.54634e-22)
(1.87307 0.1946 9.85102e-23)
(1.89405 0.179936 -4.89279e-22)
(-0.00961873 0.00922687 0)
(-0.0384189 0.0170706 -2.08657e-21)
(-0.0792552 0.0198311 0)
(-0.118924 0.0204349 -2.82057e-21)
(-0.155066 0.0201603 -9.17204e-22)
(-0.187691 0.0196298 1.73737e-21)
(-0.217127 0.0191583 -1.63618e-21)
(-0.243877 0.0189094 1.61285e-21)
(-0.268647 0.0190119 -7.84801e-24)
(-0.29249 0.0195895 1.49072e-21)
(-0.0112001 0.0264978 -6.56694e-21)
(-0.0393667 0.0493721 4.11956e-21)
(-0.0770464 0.0576164 -4.02053e-21)
(-0.112662 0.0594243 1.86756e-21)
(-0.14417 0.058498 9.097e-21)
(-0.171534 0.0566824 -3.42853e-21)
(-0.195006 0.0549367 0)
(-0.214949 0.0537989 -1.60742e-21)
(-0.231849 0.0536975 -1.55656e-21)
(-0.247183 0.0550474 0)
(-0.014093 0.0404709 4.37995e-21)
(-0.0413086 0.076501 0)
(-0.0733552 0.0899903 1.22635e-20)
(-0.101638 0.0929684 -1.55095e-20)
(-0.124716 0.0911612 3.6712e-21)
(-0.142578 0.0875184 0)
(-0.15541 0.0836352 0)
(-0.163404 0.0805173 0)
(-0.166526 0.0790259 1.28771e-20)
(-0.166458 0.0800681 -1.22381e-20)
(-0.0178019 0.0498466 0)
(-0.0442477 0.0960798 -9.08368e-21)
(-0.0692931 0.114131 1.69499e-20)
(-0.0880736 0.118131 -7.94598e-21)
(-0.100084 0.11522 7.70089e-21)
(-0.10551 0.109199 -2.19705e-20)
(-0.104558 0.102155 -2.52104e-22)
(-0.0974388 0.0955126 1.33656e-20)
(-0.0835396 0.0907301 1.30138e-20)
(-0.0625264 0.0900983 -1.85695e-20)
(-0.0218466 0.0544321 9.74683e-21)
(-0.0480836 0.107031 -1.90028e-20)
(-0.0657833 0.128286 -1.08283e-22)
(-0.0738277 0.132845 1.44058e-22)
(-0.0728986 0.128632 7.86276e-21)
(-0.0635668 0.119974 -2.22848e-20)
(-0.0461075 0.1092 0)
(-0.0209399 0.0977876 -6.821e-21)
(0.0125213 0.0876228 6.50276e-21)
(0.0592454 0.0833168 -2.54635e-20)
(-0.0259561 0.0549935 -2.67998e-22)
(-0.0525406 0.109598 1.94481e-20)
(-0.062974 0.131887 8.93536e-21)
(-0.0592464 0.135961 8.7432e-21)
(-0.0431997 0.130046 7.89141e-21)
(-0.0158125 0.118755 7.49312e-21)
(0.0225989 0.104494 0)
(0.0714976 0.0885874 6.82046e-21)
(0.129075 0.0723344 1.92233e-20)
(0.213319 0.0623374 -6.41719e-21)
(-0.03014 0.0528722 4.1934e-23)
(-0.057023 0.105128 1.02536e-20)
(-0.0595395 0.125546 0)
(-0.0418759 0.127378 -1.69223e-20)
(-0.00655145 0.118909 1.61276e-20)
(0.04522 0.104886 0)
(0.113026 0.0879058 0)
(0.196811 0.0698207 0)
(0.284534 0.0490908 -1.29102e-20)
(0.426283 0.034552 -2.50013e-20)
(-0.0344843 0.0494465 -1.14192e-20)
(-0.0602449 0.0954644 1.06966e-20)
(-0.0519153 0.110837 1.95582e-20)
(-0.0149955 0.108338 3.45392e-22)
(0.04791 0.0962693 1.63317e-20)
(0.135197 0.0795103 1.51839e-20)
(0.244973 0.060796 1.42391e-20)
(0.377467 0.043878 1.33761e-20)
(0.50148 0.0224294 1.29084e-20)
(0.714078 0.00981022 -1.16165e-20)
(-0.0388031 0.0455941 -3.69073e-20)
(-0.0596354 0.0822127 -1.05848e-20)
(-0.0335961 0.0898687 -3.92417e-20)
(0.0329753 0.0814713 -1.77898e-20)
(0.137124 0.0656673 2.94103e-22)
(0.274852 0.0474625 -1.50062e-20)
(0.439391 0.0296856 1.43397e-20)
(0.625167 0.0167406 -1.33742e-20)
(0.79181 0.00032222 1.27038e-20)
(1.05041 -0.00283449 -2.4156e-20)
(-0.0422975 0.0414419 2.49507e-20)
(-0.0510699 0.0662284 0)
(0.00449258 0.064727 2.02785e-20)
(0.116532 0.0506239 -1.42192e-23)
(0.278698 0.0331379 4.54579e-22)
(0.478835 0.0171061 1.53442e-20)
(0.701172 0.00573471 -4.31945e-20)
(0.92435 -0.0015668 0)
(1.13331 -0.00591635 -1.27017e-20)
(1.36619 3.58811e-05 0)
(-0.316102 0.0204332 0)
(-0.341241 0.0199124 -1.5594e-21)
(-0.365421 0.0191761 3.16152e-21)
(-0.388806 0.0183594 -1.39856e-21)
(-0.411299 0.0174265 0)
(-0.432718 0.0163447 1.67264e-21)
(-0.452848 0.0150797 -1.68093e-21)
(-0.471424 0.0135943 0)
(-0.488128 0.0118506 0)
(-0.502582 0.00981114 2.10713e-22)
(-0.514337 0.00744048 0)
(-0.522842 0.0047048 0)
(-0.527476 0.00157695 0)
(-0.527921 -0.00194132 0)
(-0.523895 -0.00579585 -2.77237e-22)
(-0.515093 -0.00984728 2.78673e-22)
(-0.500847 -0.0138443 0)
(-0.479096 -0.0175904 -5.24471e-23)
(-0.448999 -0.0211385 5.27231e-23)
(-0.423085 -0.0241876 0)
(-0.26352 0.0573236 0)
(-0.284792 0.0559142 3.97032e-22)
(-0.30481 0.0538377 0)
(-0.324053 0.0515171 6.40747e-21)
(-0.34257 0.0488598 -6.2168e-21)
(-0.360187 0.0457876 4.31015e-22)
(-0.376717 0.0422141 -3.43282e-21)
(-0.391944 0.0380402 7.32534e-21)
(-0.405613 0.0331654 -6.42966e-21)
(-0.417432 0.0274919 3.65594e-21)
(-0.427067 0.0209269 3.26117e-21)
(-0.434115 0.0133853 -5.9802e-21)
(-0.438079 0.00478295 3.13041e-21)
(-0.438807 -0.004953 1.69027e-21)
(-0.435974 -0.0156861 -1.33358e-21)
(-0.429322 -0.0271197 2.83182e-22)
(-0.418327 -0.0386176 2.30321e-22)
(-0.40122 -0.049512 2.38204e-22)
(-0.376437 -0.0597092 -2.39358e-22)
(-0.353287 -0.0684174 2.54696e-23)
(-0.170924 0.0834627 -3.96983e-22)
(-0.184957 0.0814109 -3.97732e-22)
(-0.197594 0.078416 -4.16676e-22)
(-0.209478 0.0749821 0)
(-0.220911 0.0709954 -7.78297e-21)
(-0.231726 0.0663617 6.0764e-21)
(-0.241776 0.0609702 0)
(-0.250901 0.0547066 -8.91694e-22)
(-0.258915 0.0474445 -4.3759e-22)
(-0.265615 0.0390621 6.11777e-21)
(-0.270789 0.0294577 -2.0225e-22)
(-0.274218 0.0185545 -7.69744e-21)
(-0.275681 0.00625874 -4.11807e-22)
(-0.275229 -0.00764576 -3.607e-22)
(-0.272538 -0.0230191 -3.50105e-22)
(-0.267579 -0.0396435 7.85631e-22)
(-0.260102 -0.0568768 -7.17146e-22)
(-0.249059 -0.0737268 -8.38363e-22)
(-0.232472 -0.0896208 -1.8145e-22)
(-0.213636 -0.103377 9.12356e-24)
(-0.0535885 0.0937228 -1.26162e-20)
(-0.0587305 0.0921747 -2.63904e-22)
(-0.0621158 0.0890195 1.41375e-22)
(-0.0648709 0.0849962 1.36792e-20)
(-0.0674758 0.0802639 1.32462e-21)
(-0.0697979 0.0746976 4.4293e-22)
(-0.0716875 0.0681312 -1.37034e-20)
(-0.07303 0.060444 7.76207e-21)
(-0.0737142 0.0515342 7.37872e-21)
(-0.0735975 0.0412917 -7.75744e-21)
(-0.0725124 0.02964 1.78948e-22)
(-0.0703231 0.0165568 8.46212e-21)
(-0.0671762 0.00205834 4.08385e-22)
(-0.0631382 -0.0140609 3.80999e-21)
(-0.0579293 -0.0316971 -2.66717e-21)
(-0.0517923 -0.0507267 -2.30423e-21)
(-0.0448137 -0.070793 2.01993e-21)
(-0.037011 -0.0911935 0)
(-0.0278313 -0.110727 3.71557e-22)
(-0.0125045 -0.12706 3.3997e-23)
(0.0817512 0.0874548 2.52398e-20)
(0.0869781 0.0875168 -1.2701e-20)
(0.0915805 0.0847018 1.35619e-20)
(0.0976926 0.080572 0)
(0.104178 0.0756523 -8.89076e-22)
(0.110655 0.0698 -1.47213e-20)
(0.117236 0.0627463 -1.08978e-21)
(0.124087 0.0543335 -9.1272e-23)
(0.131284 0.0444842 1.50545e-20)
(0.138881 0.0331374 9.2551e-22)
(0.146991 0.0202699 0)
(0.155795 0.0059942 -8.86569e-22)
(0.164795 -0.00988394 0)
(0.173995 -0.027227 -7.95439e-22)
(0.183578 -0.0458587 0)
(0.193254 -0.0656084 0)
(0.202597 -0.0861214 5.31942e-22)
(0.211563 -0.10713 -6.84559e-22)
(0.219268 -0.127412 6.09066e-22)
(0.231703 -0.145568 -1.78538e-22)
(0.245501 0.068358 0)
(0.259422 0.0699955 -8.43685e-22)
(0.269629 0.0676669 -2.78638e-20)
(0.282119 0.0636567 2.6985e-20)
(0.295906 0.0588628 -8.97464e-22)
(0.309806 0.0530899 0)
(0.323672 0.0459573 -1.50229e-20)
(0.337707 0.0373009 2.92241e-20)
(0.352023 0.0270665 -1.60941e-20)
(0.366623 0.0152722 -9.47092e-22)
(0.381628 0.00197465 -9.35539e-22)
(0.396646 -0.0129972 -9.12201e-22)
(0.411301 -0.0296174 0)
(0.425919 -0.047468 5.47214e-21)
(0.440314 -0.0663485 -1.27135e-20)
(0.454268 -0.0860534 5.66451e-21)
(0.466973 -0.105964 -5.55821e-22)
(0.479258 -0.126009 -4.24043e-22)
(0.487554 -0.144111 1.81598e-22)
(0.501193 -0.163585 -1.80501e-22)
(0.460782 0.0428967 2.47509e-20)
(0.478695 0.0457297 0)
(0.49059 0.0432665 -8.58569e-22)
(0.505318 0.0390946 1.75046e-21)
(0.522641 0.0344144 1.78786e-21)
(0.540696 0.0286914 9.08367e-22)
(0.558966 0.0214425 9.22898e-22)
(0.577606 0.0125553 -1.4125e-20)
(0.596808 0.0021535 1.69111e-20)
(0.61647 -0.00982455 1.6807e-20)
(0.63616 -0.0234808 -1.39788e-20)
(0.655482 -0.0388305 1.79576e-21)
(0.674631 -0.0554833 -6.70516e-21)
(0.693388 -0.073181 1.28758e-21)
(0.711273 -0.0916527 7.67257e-21)
(0.728359 -0.110674 6.45183e-22)
(0.743271 -0.129281 -8.35742e-22)
(0.758018 -0.147927 9.70033e-22)
(0.767003 -0.163067 1.61141e-21)
(0.781542 -0.180942 8.73222e-23)
(0.741615 0.0198534 0)
(0.757098 0.022506 -2.7453e-20)
(0.766689 0.0185549 2.81942e-20)
(0.779724 0.0135771 -8.74324e-22)
(0.796383 0.00849912 -1.76482e-21)
(0.814497 0.00219307 -9.07553e-22)
(0.833368 -0.00572672 -1.82121e-21)
(0.85309 -0.0150043 0)
(0.873683 -0.0256931 -9.29376e-22)
(0.894584 -0.0379288 -9.23813e-22)
(0.915631 -0.0517676 -8.89017e-22)
(0.936451 -0.066873 -1.74477e-21)
(0.956845 -0.0830738 0)
(0.976354 -0.100155 0)
(0.99467 -0.117668 -7.18361e-22)
(1.01163 -0.135414 -5.80984e-21)
(1.02608 -0.152163 4.02669e-21)
(1.03967 -0.1688 -3.80926e-22)
(1.04782 -0.181122 -8.24022e-22)
(1.05925 -0.195858 2.3793e-22)
(1.0666 0.00808213 2.52112e-20)
(1.07614 0.00776716 0)
(1.08269 0.00113305 0)
(1.09308 -0.00491774 -2.75672e-20)
(1.10689 -0.011112 2.72726e-22)
(1.12226 -0.0187459 5.6082e-20)
(1.13891 -0.0277686 -2.72106e-20)
(1.15639 -0.03795 0)
(1.17445 -0.0494473 0)
(1.19265 -0.0621476 0)
(1.21094 -0.0759848 4.57165e-22)
(1.22855 -0.0908148 1.25422e-21)
(1.2457 -0.10644 1.22973e-20)
(1.26126 -0.122578 -1.1855e-20)
(1.27587 -0.138744 5.01501e-21)
(1.2879 -0.154777 -4.38651e-21)
(1.29853 -0.169421 0)
(1.30589 -0.183544 1.95783e-22)
(1.31127 -0.193426 2.32439e-22)
(1.31399 -0.204369 0)
(1.38589 0.00231123 -4.14468e-22)
(1.39651 -0.0054182 -2.69262e-20)
(1.40497 -0.0123464 2.66464e-20)
(1.41428 -0.0175583 0)
(1.42399 -0.023808 2.69738e-20)
(1.43393 -0.0315614 -5.3785e-20)
(1.44443 -0.0405775 2.68122e-20)
(1.45519 -0.0508282 0)
(1.46637 -0.0622241 1.33685e-20)
(1.47727 -0.0747239 -2.63414e-20)
(1.48827 -0.0882531 1.33903e-20)
(1.49812 -0.102623 -3.98626e-22)
(1.50787 -0.117528 0)
(1.51525 -0.132724 -1.06965e-20)
(1.52269 -0.147614 1.48191e-20)
(1.52606 -0.162126 -4.52762e-21)
(1.5305 -0.17498 -3.03357e-21)
(1.52846 -0.186971 2.11897e-21)
(1.53005 -0.195076 1.04456e-21)
(1.52135 -0.202949 0)
(1.70351 0.00544953 0)
(1.69507 -0.00299993 0)
(1.68926 -0.00983363 0)
(1.68425 -0.0170991 0)
(1.68098 -0.0252737 0)
(1.67967 -0.0341939 0)
(1.6803 -0.0437492 0)
(1.68194 -0.0539386 0)
(1.68463 -0.0648059 0)
(1.68714 -0.0764231 0)
(1.69026 -0.0887085 0)
(1.69206 -0.101592 0)
(1.69444 -0.114755 0)
(1.69398 -0.128163 0)
(1.69472 -0.141134 0)
(1.69045 -0.153941 0)
(1.68938 -0.165123 0)
(1.6798 -0.17599 0)
(1.67799 -0.18318 0)
(1.6613 -0.190971 0)
(1.82441 0.0127366 0)
(1.82565 0.00525874 0)
(1.82436 -0.00280906 0)
(1.82224 -0.0118483 0)
(1.82083 -0.0215285 0)
(1.82003 -0.0316325 0)
(1.82002 -0.0420859 0)
(1.81988 -0.0529512 0)
(1.82003 -0.0642625 0)
(1.81924 -0.0760663 0)
(1.81876 -0.0882297 0)
(1.81643 -0.100738 0)
(1.81475 -0.11323 0)
(1.8098 -0.125765 0)
(1.80656 -0.137615 0)
(1.79784 -0.149189 0)
(1.79341 -0.159035 0)
(1.77967 -0.168515 0)
(1.77568 -0.174595 0)
(1.75535 -0.180989 0)
(1.89761 0.014421 0)
(1.90167 0.00484809 0)
(1.90246 -0.00403871 0)
(1.90168 -0.0130158 0)
(1.90111 -0.0224731 0)
(1.90087 -0.0323657 0)
(1.90107 -0.0425895 0)
(1.90066 -0.0531579 0)
(1.90019 -0.0640278 0)
(1.89836 -0.0752335 0)
(1.89662 -0.0865996 0)
(1.89273 -0.0981609 0)
(1.88949 -0.109513 0)
(1.88276 -0.120812 0)
(1.87801 -0.131285 0)
(1.86759 -0.141485 0)
(1.86199 -0.149928 0)
(1.84689 -0.158135 0)
(1.8424 -0.163142 0)
(1.82114 -0.168683 0)
(1.94678 0.0154408 0)
(1.95244 0.00541135 0)
(1.9541 -0.00404966 0)
(1.95368 -0.0133887 0)
(1.95329 -0.0228601 0)
(1.95313 -0.0325561 0)
(1.95333 -0.0424434 0)
(1.95277 -0.0525419 0)
(1.95203 -0.0627799 0)
(1.94977 -0.0732101 0)
(1.94756 -0.0836431 0)
(1.94311 -0.0941642 0)
(1.93937 -0.104355 0)
(1.93216 -0.114456 0)
(1.92704 -0.123671 0)
(1.91637 -0.132678 0)
(1.91067 -0.139961 0)
(1.89573 -0.147202 0)
(1.89136 -0.151431 0)
(1.87077 -0.156546 0)
(1.98497 0.0150932 0)
(1.99123 0.00481306 0)
(1.99355 -0.00498008 0)
(1.99356 -0.0143454 0)
(1.99334 -0.0235502 0)
(1.99316 -0.0328155 0)
(1.99327 -0.0421753 0)
(1.99256 -0.0516626 0)
(1.99164 -0.0611858 0)
(1.98918 -0.0708013 0)
(1.98677 -0.0803131 0)
(1.98216 -0.0898383 0)
(1.97832 -0.0989648 0)
(1.97113 -0.107983 0)
(1.96609 -0.116111 0)
(1.95575 -0.124085 0)
(1.95033 -0.130424 0)
(1.93613 -0.136857 0)
(1.93209 -0.140511 0)
(1.91277 -0.145214 0)
(2.021 0.0134396 0)
(2.02731 0.00337603 0)
(2.03003 -0.00623673 0)
(2.03034 -0.0153534 0)
(2.03017 -0.0241821 0)
(2.02984 -0.0329575 0)
(2.02975 -0.0417455 0)
(2.02883 -0.0505943 0)
(2.02772 -0.059404 0)
(2.02507 -0.06823 0)
(2.02253 -0.0768775 0)
(2.01785 -0.0854813 0)
(2.01401 -0.0936492 0)
(2.00696 -0.101696 0)
(2.00212 -0.108877 0)
(1.99221 -0.115943 0)
(1.98714 -0.121488 0)
(1.97374 -0.127208 0)
(1.97005 -0.130387 0)
(1.95199 -0.134668 0)
(2.05902 0.0112161 0)
(2.06503 0.00173867 0)
(2.0678 -0.00744008 0)
(2.06817 -0.0161848 0)
(2.0679 -0.0245926 0)
(2.06731 -0.0328612 0)
(2.06689 -0.0410682 0)
(2.06565 -0.049277 0)
(2.06427 -0.0573918 0)
(2.06138 -0.0654666 0)
(2.05866 -0.0733139 0)
(2.05386 -0.0810751 0)
(2.04998 -0.0883851 0)
(2.04301 -0.0955651 0)
(2.0383 -0.101921 0)
(2.02872 -0.108187 0)
(2.02393 -0.113055 0)
(2.01116 -0.118138 0)
(2.00775 -0.120916 0)
(1.99068 -0.124784 0)
(2.0997 0.00899011 0)
(2.10511 0.000191801 0)
(2.10768 -0.00846492 0)
(2.10793 -0.0167549 0)
(2.10747 -0.0246909 0)
(2.10655 -0.0324314 0)
(2.10575 -0.040053 0)
(2.1041 -0.0476289 0)
(2.10237 -0.0550734 0)
(2.09917 -0.0624388 0)
(2.0962 -0.0695485 0)
(2.0912 -0.0765421 0)
(2.08721 -0.0830851 0)
(2.08018 -0.0894915 0)
(2.07552 -0.0951247 0)
(2.0661 -0.100684 0)
(2.06148 -0.104969 0)
(2.04909 -0.109481 0)
(2.04588 -0.111916 0)
(2.02947 -0.115384 0)
(2.14208 0.00693923 0)
(2.14674 -0.00117907 0)
(2.14895 -0.00924993 0)
(2.14901 -0.0170081 0)
(2.14832 -0.0244203 0)
(2.14704 -0.0316099 0)
(2.14583 -0.0386442 0)
(2.14374 -0.0455982 0)
(2.14163 -0.0523971 0)
(2.13805 -0.0590915 0)
(2.13479 -0.0655172 0)
(2.12951 -0.0718076 0)
(2.12533 -0.0776588 0)
(2.11816 -0.0833698 0)
(2.11344 -0.0883641 0)
(2.10403 -0.0932922 0)
(2.09949 -0.0970674 0)
(2.08727 -0.101063 0)
(2.08417 -0.103201 0)
(2.06812 -0.106286 0)
(2.18488 0.00510296 0)
(2.18874 -0.00231862 0)
(2.19053 -0.00974443 0)
(2.19034 -0.0169114 0)
(2.1894 -0.0237587 0)
(2.18775 -0.0303778 0)
(2.18613 -0.0368226 0)
(2.1836 -0.0431646 0)
(2.18108 -0.0493387 0)
(2.17711 -0.0553929 0)
(2.17353 -0.0611772 0)
(2.16792 -0.0668157 0)
(2.16351 -0.0720351 0)
(2.15611 -0.0771135 0)
(2.15129 -0.0815343 0)
(2.14176 -0.0858929 0)
(2.13721 -0.089216 0)
(2.12501 -0.092742 0)
(2.12195 -0.0946173 0)
(2.10605 -0.0973418 0)
(2.22696 0.00354636 0)
(2.23003 -0.00315404 0)
(2.23135 -0.00990099 0)
(2.23088 -0.016443 0)
(2.22965 -0.0226991 0)
(2.22765 -0.028733 0)
(2.22562 -0.0345862 0)
(2.22265 -0.0403239 0)
(2.21973 -0.0458896 0)
(2.21535 -0.0513284 0)
(2.21144 -0.0565048 0)
(2.20548 -0.0615321 0)
(2.20083 -0.0661668 0)
(2.19315 -0.0706629 0)
(2.18818 -0.0745622 0)
(2.17845 -0.0784014 0)
(2.17386 -0.0813178 0)
(2.16154 -0.0844146 0)
(2.1585 -0.086055 0)
(2.14257 -0.0884434 0)
(2.26731 0.00234023 0)
(2.26961 -0.00363659 0)
(2.27045 -0.00969531 0)
(2.26965 -0.015596 0)
(2.26815 -0.0212443 0)
(2.26579 -0.0266824 0)
(2.26338 -0.0319422 0)
(2.25998 -0.0370822 0)
(2.25668 -0.0420534 0)
(2.2519 -0.0468968 0)
(2.24766 -0.0514923 0)
(2.24136 -0.0559411 0)
(2.23645 -0.0600287 0)
(2.22846 -0.0639832 0)
(2.22332 -0.0674022 0)
(2.21336 -0.0707629 0)
(2.20868 -0.0733089 0)
(2.19618 -0.0760111 0)
(2.19312 -0.0774386 0)
(2.17706 -0.0795159 0)
(2.30502 0.00150943 0)
(2.30657 -0.00375889 0)
(2.30693 -0.00913023 0)
(2.30582 -0.0143799 0)
(2.30404 -0.0194089 0)
(2.30135 -0.024244 0)
(2.29859 -0.02891 0)
(2.29479 -0.0334582 0)
(2.29114 -0.0378465 0)
(2.28599 -0.0421116 0)
(2.28144 -0.0461479 0)
(2.27479 -0.0500447 0)
(2.26964 -0.0536152 0)
(2.26135 -0.0570607 0)
(2.25604 -0.0600324 0)
(2.24581 -0.0629481 0)
(2.24103 -0.0651525 0)
(2.22831 -0.0674894 0)
(2.22522 -0.068722 0)
(2.20898 -0.0705119 0)
(2.33916 0.00103029 0)
(2.34004 -0.0035454 0)
(2.33998 -0.00823098 0)
(2.33857 -0.0128234 0)
(2.33656 -0.0172257 0)
(2.33359 -0.0214538 0)
(2.33053 -0.0255265 0)
(2.32639 -0.029488 0)
(2.32242 -0.033303 0)
(2.31694 -0.037003 0)
(2.31213 -0.0404974 0)
(2.30517 -0.0438628 0)
(2.2998 -0.0469397 0)
(2.29123 -0.049902 0)
(2.28575 -0.0524521 0)
(2.27527 -0.0549494 0)
(2.2704 -0.0568349 0)
(2.25744 -0.0588306 0)
(2.25432 -0.0598824 0)
(2.23785 -0.0614059 0)
(2.36888 0.000837118 0)
(2.36924 -0.00305738 0)
(2.36884 -0.00705865 0)
(2.36722 -0.0109891 0)
(2.36504 -0.0147587 0)
(2.36186 -0.0183754 0)
(2.35858 -0.0218537 0)
(2.35417 -0.0252312 0)
(2.34997 -0.0284786 0)
(2.34422 -0.0316223 0)
(2.33919 -0.0345863 0)
(2.33198 -0.0374349 0)
(2.32644 -0.0400348 0)
(2.31762 -0.0425325 0)
(2.31201 -0.0446796 0)
(2.3013 -0.0467784 0)
(2.29635 -0.0483617 0)
(2.28317 -0.0500346 0)
(2.28001 -0.0509163 0)
(2.26333 -0.0521901 0)
(2.39357 0.000817004 0)
(2.39357 -0.00240153 0)
(2.39296 -0.00571524 0)
(2.39124 -0.00897486 0)
(2.38899 -0.0121014 0)
(2.3857 -0.0150984 0)
(2.38229 -0.0179769 0)
(2.3777 -0.0207678 0)
(2.37334 -0.0234476 0)
(2.3674 -0.0260378 0)
(2.36224 -0.0284763 0)
(2.35484 -0.0308157 0)
(2.34916 -0.0329478 0)
(2.34016 -0.0349921 0)
(2.33445 -0.0367477 0)
(2.32355 -0.0384607 0)
(2.31853 -0.0397524 0)
(2.30516 -0.0411149 0)
(2.30197 -0.0418332 0)
(2.28509 -0.0428689 0)
(2.413 0.000819542 0)
(2.41281 -0.00171514 0)
(2.41213 -0.00432903 0)
(2.4104 -0.00690083 0)
(2.40817 -0.00936603 0)
(2.40486 -0.0117274 0)
(2.40141 -0.0139932 0)
(2.39673 -0.016188 0)
(2.3923 -0.0182927 0)
(2.38624 -0.0203247 0)
(2.381 -0.0222351 0)
(2.37347 -0.0240654 0)
(2.36772 -0.0257311 0)
(2.35857 -0.0273262 0)
(2.3528 -0.0286946 0)
(2.34174 -0.030028 0)
(2.33669 -0.0310331 0)
(2.32315 -0.0320917 0)
(2.31995 -0.03265 0)
(2.3029 -0.0334536 0)
(2.42733 0.000706999 0)
(2.42708 -0.00112713 0)
(2.4264 -0.00301805 0)
(2.42474 -0.00487573 0)
(2.42258 -0.00665402 0)
(2.41931 -0.00835746 0)
(2.41586 -0.0099907 0)
(2.41116 -0.0115728 0)
(2.40669 -0.0130878 0)
(2.40058 -0.0145507 0)
(2.3953 -0.0159233 0)
(2.38769 -0.0172389 0)
(2.38189 -0.018433 0)
(2.37265 -0.0195777 0)
(2.36684 -0.0205564 0)
(2.35567 -0.0215123 0)
(2.35058 -0.0222297 0)
(2.33692 -0.0229877 0)
(2.33371 -0.0233853 0)
(2.31652 -0.0239597 0)
(2.43684 0.000538004 0)
(2.43658 -0.000619016 0)
(2.43595 -0.00177932 0)
(2.43435 -0.00290459 0)
(2.43227 -0.00397764 0)
(2.42903 -0.00500687 0)
(2.42561 -0.00599171 0)
(2.4209 -0.00694775 0)
(2.41643 -0.00786028 0)
(2.41029 -0.00874455 0)
(2.40498 -0.00956948 0)
(2.39733 -0.0103649 0)
(2.39151 -0.0110801 0)
(2.3822 -0.0117731 0)
(2.37637 -0.0123566 0)
(2.36512 -0.0129369 0)
(2.36002 -0.0133617 0)
(2.34626 -0.0138233 0)
(2.34305 -0.0140562 0)
(2.32575 -0.0144046 0)
(2.44155 0.000374938 0)
(2.44132 -7.3304e-05 0)
(2.44075 -0.000496823 0)
(2.43921 -0.000894652 0)
(2.43717 -0.00126863 0)
(2.43395 -0.00162522 0)
(2.43055 -0.00196339 0)
(2.42584 -0.00229096 0)
(2.42136 -0.00260099 0)
(2.41521 -0.00290201 0)
(2.4099 -0.00317997 0)
(2.40222 -0.00344987 0)
(2.39639 -0.003689 0)
(2.38705 -0.00392415 0)
(2.3812 -0.00411757 0)
(2.36991 -0.00431516 0)
(2.36479 -0.00445429 0)
(2.35099 -0.00461237 0)
(2.34777 -0.00468728 0)
(2.33042 -0.00480608 0)
(1.91745 0.162067 4.7808e-22)
(1.93493 0.145641 0)
(1.94453 0.128789 6.83957e-23)
(1.94878 0.111691 2.47287e-21)
(1.9442 0.0946543 -1.18647e-20)
(1.93791 0.0787417 0)
(1.9211 0.0622475 -1.73315e-20)
(1.89365 0.0499123 0)
(1.87796 0.0323681 -2.19463e-20)
(1.7177 0.0147057 3.51045e-22)
(1.94572 0.147452 -8.5528e-22)
(1.96148 0.133557 5.75498e-23)
(1.97024 0.118854 -5.76667e-23)
(1.97296 0.10526 -1.5565e-21)
(1.97129 0.0901274 2.65472e-21)
(1.95893 0.0780277 2.87311e-22)
(1.95988 0.0631401 0)
(1.91295 0.0521069 1.53339e-20)
(1.94557 0.0412468 0)
(1.82224 0.0219504 2.04973e-20)
(1.97959 0.132711 1.87405e-21)
(1.99133 0.120916 0)
(2.00153 0.107534 -2.83215e-23)
(1.99797 0.0961236 -1.44488e-21)
(2.00381 0.0827409 -2.94492e-21)
(1.97904 0.0720779 0)
(1.99604 0.0606557 -9.02971e-21)
(1.93727 0.048177 -1.56521e-20)
(1.97473 0.0416242 0)
(1.89192 0.0253525 -2.02882e-20)
(2.01666 0.119664 -9.05103e-22)
(2.02355 0.109183 3.12887e-21)
(2.03705 0.0974862 0)
(2.02639 0.0869727 4.77753e-22)
(2.03893 0.0760491 -1.03697e-22)
(2.00612 0.0649423 3.09111e-22)
(2.02666 0.0566862 8.89265e-21)
(1.97196 0.0435273 2.9841e-22)
(1.99476 0.0377159 1.18791e-20)
(1.93885 0.0260027 0)
(2.05498 0.107982 0)
(2.05812 0.0983122 -3.07441e-21)
(2.07384 0.0886833 -2.90404e-21)
(2.05963 0.078446 2.03847e-22)
(2.0737 0.069945 -9.29285e-23)
(2.04134 0.0586552 1.24218e-22)
(2.05572 0.0519904 3.88155e-21)
(2.0119 0.0403288 5.11608e-22)
(2.021 0.0337293 -2.59452e-21)
(1.97661 0.0252041 -1.21504e-20)
(2.09323 0.0973709 1.40528e-21)
(2.09483 0.0883347 2.17715e-22)
(2.11017 0.080476 -8.83676e-22)
(2.09666 0.0706976 1.46131e-22)
(2.10797 0.0636943 -2.23795e-21)
(2.08095 0.053363 0)
(2.08774 0.0469455 -4.35365e-21)
(2.05261 0.0376153 1.42051e-22)
(2.05477 0.0301677 -1.66645e-20)
(2.01312 0.0231911 2.17949e-20)
(2.13086 0.087565 -1.4122e-21)
(2.13268 0.0793009 -2.38309e-21)
(2.14592 0.0725703 3.15154e-21)
(2.13518 0.0637325 -4.86891e-21)
(2.14285 0.0573126 -1.24021e-21)
(2.12123 0.0485482 -1.49536e-21)
(2.12354 0.041874 -7.46331e-23)
(2.09286 0.0343264 2.29997e-22)
(2.09299 0.0265566 7.03296e-21)
(2.05181 0.0203535 -9.66879e-21)
(2.16778 0.0784474 0)
(2.17039 0.0711289 5.26378e-21)
(2.1814 0.0650299 -4.84365e-22)
(2.17331 0.0573814 2.31444e-21)
(2.17865 0.0511582 -9.23e-22)
(2.16054 0.0438304 3.86847e-21)
(2.16151 0.0370597 -9.21616e-22)
(2.13303 0.0305649 0)
(2.13329 0.023073 0)
(2.09328 0.0173675 0)
(2.20381 0.0700193 0)
(2.20697 0.0636684 -5.08641e-21)
(2.21648 0.0580078 -3.01888e-22)
(2.21013 0.0514667 3.0161e-21)
(2.21466 0.0454771 4.18503e-21)
(2.19864 0.0391911 -2.58827e-21)
(2.19986 0.0326964 1.18157e-21)
(2.17331 0.0268642 -4.78042e-23)
(2.17419 0.0199686 0)
(2.13658 0.0146032 -1.75709e-21)
(2.23849 0.0622856 1.99204e-22)
(2.24186 0.0567925 2.92459e-21)
(2.25056 0.0515756 4.24135e-21)
(2.24531 0.0459194 -1.39435e-22)
(2.24984 0.0403336 3.95081e-22)
(2.2355 0.0347795 -4.31174e-21)
(2.23735 0.0288134 2.97486e-21)
(2.21321 0.0234713 -1.00619e-22)
(2.21455 0.0172084 0)
(2.18031 0.0120992 2.63568e-21)
(2.27119 0.0552069 0)
(2.2746 0.050427 3.11758e-21)
(2.28286 0.0457127 3.12056e-22)
(2.27857 0.0407462 0)
(2.28329 0.03569 0)
(2.27079 0.0306972 3.88418e-21)
(2.27314 0.0253351 -2.44494e-21)
(2.25191 0.0203935 -7.2878e-23)
(2.25345 0.0147245 7.01924e-23)
(2.22328 0.0098652 -8.85177e-22)
(2.30118 0.0487036 0)
(2.30471 0.044523 -6.02605e-21)
(2.31263 0.0403499 -5.84501e-21)
(2.30942 0.0359551 7.85464e-22)
(2.31429 0.031476 -4.80829e-22)
(2.30389 0.0269654 -2.79925e-22)
(2.30655 0.0222009 4.69523e-22)
(2.28858 0.0176316 2.42197e-21)
(2.29015 0.0125494 1.39334e-22)
(2.26448 0.00797109 -2.38504e-23)
(2.32775 0.0426711 0)
(2.33157 0.0390213 3.27642e-21)
(2.33918 0.0353968 -3.20468e-22)
(2.33724 0.0315181 3.1782e-22)
(2.34217 0.0276172 0)
(2.3341 0.023566 0)
(2.33691 0.019386 0)
(2.32241 0.0152091 -2.71679e-21)
(2.32395 0.010721 2.20012e-21)
(2.30297 0.00646725 0)
(2.35022 0.0369845 0)
(2.35452 0.0338324 2.15277e-21)
(2.36187 0.0307453 2.58103e-21)
(2.36137 0.0273654 3.04257e-21)
(2.36631 0.0240302 -5.48863e-22)
(2.36068 0.0204502 2.91447e-21)
(2.3636 0.0168484 -2.20371e-21)
(2.35262 0.0131058 0)
(2.3541 0.00920974 5.69196e-22)
(2.3378 0.0053382 -1.73754e-21)
(2.36814 0.0314949 -5.20338e-22)
(2.3731 0.0288304 -1.76058e-21)
(2.38027 0.0262642 -3.34162e-21)
(2.38128 0.0233884 -2.14685e-21)
(2.38625 0.0206047 0)
(2.38304 0.0175252 -3.64579e-21)
(2.38605 0.0144943 3.21136e-21)
(2.37847 0.0112365 -2.88216e-22)
(2.37991 0.00792493 -1.1218e-21)
(2.36807 0.00451047 2.71321e-21)
(2.38153 0.0260349 5.23009e-22)
(2.38727 0.0238634 -1.41898e-21)
(2.39436 0.021804 1.16119e-21)
(2.39683 0.0194486 -2.67911e-21)
(2.40186 0.0172034 0)
(2.40089 0.0146585 0)
(2.40399 0.0121885 3.18576e-22)
(2.39951 0.00946872 -2.83115e-21)
(2.40095 0.00673654 -1.30448e-21)
(2.39312 0.00386177 -1.04144e-21)
(2.39102 0.0204616 0)
(2.39753 0.0187973 2.29029e-21)
(2.40462 0.0172352 -7.76409e-22)
(2.40839 0.0154172 2.42606e-21)
(2.41348 0.0136971 6.18965e-22)
(2.41442 0.0117131 -4.24637e-22)
(2.41761 0.00979259 7.52801e-22)
(2.41574 0.00765232 1.93801e-21)
(2.41722 0.00549784 0)
(2.41271 0.00322594 0)
(2.39768 0.014741 0)
(2.4048 0.0135964 9.54498e-22)
(2.41187 0.0125263 -1.62629e-21)
(2.41665 0.0112554 0)
(2.42177 0.0100482 -1.17743e-21)
(2.42417 0.00863277 -4.39871e-22)
(2.42742 0.00725069 -1.14839e-21)
(2.42753 0.0056991 -2.75616e-22)
(2.42908 0.00412152 1.63145e-22)
(2.42709 0.00246213 1.00998e-22)
(2.40227 0.00890895 0)
(2.40975 0.00829513 -9.59075e-22)
(2.41675 0.00772883 -8.04507e-22)
(2.42216 0.00702553 1.0394e-21)
(2.42725 0.0063414 5.34287e-22)
(2.43061 0.00550915 4.94244e-22)
(2.43388 0.00467192 1.93653e-21)
(2.4353 0.00371596 -1.27711e-21)
(2.43691 0.00271565 2.75997e-22)
(2.43659 0.00166261 0)
(2.40477 0.00283608 0)
(2.41237 0.00275933 4.57695e-22)
(2.4193 0.00269352 -4.25513e-22)
(2.42499 0.00256309 3.87543e-22)
(2.43005 0.00241406 0)
(2.43385 0.00218769 -4.96706e-22)
(2.43712 0.0019294 3.70057e-22)
(2.43917 0.00160514 2.8183e-22)
(2.4408 0.00123478 0)
(2.4413 0.000827491 0)
(1.286 0.304055 0)
(1.2383 0.332708 -5.29948e-20)
(1.20098 0.370184 0)
(1.17085 0.417869 -1.75306e-19)
(1.1443 0.475095 6.82022e-20)
(1.11939 0.544058 2.88626e-21)
(1.09445 0.626616 5.23852e-20)
(1.0516 0.713231 -1.00432e-20)
(0.916657 0.739276 0)
(0.529792 0.469346 4.44985e-20)
(1.36952 0.306366 9.54624e-20)
(1.32448 0.342888 5.29929e-20)
(1.29101 0.37918 -4.85901e-20)
(1.26406 0.42522 5.91378e-20)
(1.24119 0.481891 -4.62556e-20)
(1.22184 0.550304 9.90157e-21)
(1.20411 0.631589 -5.54212e-20)
(1.16707 0.714737 -1.04609e-19)
(1.02555 0.733561 -2.7714e-20)
(0.591191 0.455549 -6.40851e-20)
(1.44908 0.303618 -4.06291e-20)
(1.41016 0.342465 4.17429e-20)
(1.38052 0.378151 4.8588e-20)
(1.35579 0.423277 4.9124e-20)
(1.33598 0.47922 4.91984e-20)
(1.32186 0.546267 4.83865e-20)
(1.31072 0.624726 1.16126e-20)
(1.27773 0.701722 4.09494e-20)
(1.12657 0.710801 9.91917e-21)
(0.642926 0.428456 -1.05885e-20)
(1.52788 0.298046 8.12146e-20)
(1.49385 0.336724 -4.17407e-20)
(1.46703 0.371052 0)
(1.44416 0.414436 0)
(1.42718 0.468401 0)
(1.41778 0.532682 3.00236e-20)
(1.41199 0.606583 -2.07243e-20)
(1.38022 0.674837 0)
(1.21512 0.671525 1.84297e-21)
(0.67995 0.388614 -1.42497e-21)
(1.60316 0.289171 -1.31083e-20)
(1.57262 0.326202 5.15053e-20)
(1.54807 0.358779 0)
(1.52716 0.399775 0)
(1.51299 0.450564 1.16649e-20)