/*--------------------------------*- C++ -*----------------------------------*\
| =========                 |                                                 |
| \\      /  F ield         | OpenFOAM: The Open Source CFD Toolbox           |
|  \\    /   O peration     | Version:  4.1                                   |
|   \\  /    A nd           | Web:      www.OpenFOAM.org                      |
|    \\/     M anipulation  |                                                 |
\*---------------------------------------------------------------------------*/
FoamFile
{
    version     2.0;
    format      ascii;
    class       volScalarField;
    location    "5";
    object      p;
}
// * * * * * * * * * * * * * * * * * * * * * * * * * * * * * * * * * * * * * //

dimensions      [0 2 -2 0 0 0 0];

internalField   nonuniform List<scalar> 
2000
(
-0.282569
-0.270713
-0.261299
-0.25224
-0.242107
-0.229565
-0.213824
-0.195219
-0.173151
-0.151875
-0.303111
-0.288383
-0.27673
-0.264589
-0.249994
-0.232082
-0.211003
-0.187699
-0.162921
-0.139706
-0.326485
-0.308478
-0.293961
-0.277479
-0.256905
-0.232515
-0.205649
-0.177897
-0.150318
-0.124612
-0.352091
-0.330459
-0.312138
-0.289669
-0.261604
-0.229991
-0.197337
-0.165513
-0.135518
-0.108672
-0.378868
-0.353279
-0.329805
-0.299497
-0.262728
-0.223635
-0.185487
-0.150003
-0.117898
-0.0895151
-0.405069
-0.375302
-0.344905
-0.30502
-0.258915
-0.212587
-0.169489
-0.130859
-0.096877
-0.067143
-0.428295
-0.394267
-0.355001
-0.304286
-0.248916
-0.196036
-0.14869
-0.107409
-0.0717733
-0.0406957
-0.445695
-0.407352
-0.357635
-0.295597
-0.231678
-0.173242
-0.122463
-0.0790762
-0.0420364
-0.00981804
-0.454309
-0.411544
-0.350535
-0.277599
-0.206349
-0.143542
-0.0902262
-0.0453428
-0.00727503
0.0257203
-0.451431
-0.404113
-0.331767
-0.249277
-0.172287
-0.106389
-0.0514656
-0.00576856
0.0327637
0.0658965
-0.172176
-0.177106
-0.178051
-0.177294
-0.174945
-0.170595
-0.164027
-0.155252
-0.144544
-0.132529
-0.175921
-0.180376
-0.181243
-0.180635
-0.178557
-0.174542
-0.16831
-0.159793
-0.149171
-0.137114
-0.182876
-0.186362
-0.187053
-0.186629
-0.184962
-0.181498
-0.175856
-0.167915
-0.157499
-0.144757
-0.192057
-0.194193
-0.194492
-0.194114
-0.192798
-0.189911
-0.184964
-0.177544
-0.167269
-0.154137
-0.202473
-0.202999
-0.202594
-0.201959
-0.200744
-0.198234
-0.193768
-0.186828
-0.17686
-0.162693
-0.213433
-0.212182
-0.21076
-0.209468
-0.207947
-0.205446
-0.201133
-0.194307
-0.184711
-0.169114
-0.224722
-0.221617
-0.218881
-0.216574
-0.21435
-0.211416
-0.206768
-0.199476
-0.189941
-0.172997
-0.236626
-0.231594
-0.227354
-0.223759
-0.220475
-0.216572
-0.210914
-0.202495
-0.19219
-0.174368
-0.249772
-0.242693
-0.236842
-0.231779
-0.226978
-0.221337
-0.213619
-0.203165
-0.190734
-0.172728
-0.264889
-0.255563
-0.248023
-0.241207
-0.234227
-0.225766
-0.214601
-0.200629
-0.183997
-0.166147
-0.119972
-0.105846
-0.0907623
-0.0751588
-0.0593784
-0.0438347
-0.0288808
-0.0148693
-0.00211994
0.00909889
0.0185686
0.0261209
0.0316362
0.0350374
0.0362805
0.0353497
0.0322
0.0269628
0.0188967
0.0105459
-0.125715
-0.111449
-0.0960754
-0.0802168
-0.0642361
-0.0484352
-0.033207
-0.0189159
-0.00588536
0.00560798
0.0153394
0.0231379
0.0288843
0.0325055
0.0339635
0.0332571
0.0303452
0.025417
0.0176985
0.00983284
-0.135885
-0.121199
-0.10538
-0.0892451
-0.0729055
-0.0566843
-0.0409916
-0.0262149
-0.012695
-0.000721316
0.00947267
0.0177115
0.0238768
0.0279023
0.0297614
0.0294772
0.0270223
0.0226514
0.0156457
0.00846707
-0.14726
-0.13329
-0.116871
-0.100277
-0.0835867
-0.0669384
-0.0507314
-0.0353983
-0.0213099
-0.00877054
0.00197729
0.0107537
0.0174421
0.0219854
0.0243718
0.0246517
0.0228227
0.0191853
0.0131559
0.0068386
-0.15808
-0.145187
-0.12835
-0.111322
-0.0943859
-0.0774435
-0.0608239
-0.045007
-0.0304066
-0.0173447
-0.00606978
0.00323586
0.0104595
0.0155526
0.0185216
0.0194367
0.0183364
0.0155179
0.0106167
0.00521919
-0.166285
-0.154639
-0.137807
-0.120585
-0.103618
-0.0866276
-0.0698322
-0.0537401
-0.0388098
-0.0253834
-0.013714
-0.00398384
0.00370076
0.00929726
0.012831
0.0143763
0.0140275
0.0120235
0.00827531
0.00376329
-0.170819
-0.159928
-0.143532
-0.126583
-0.109917
-0.093191
-0.0765618
-0.0605312
-0.0455729
-0.0320448
-0.0202063
-0.0102397
-0.00224299
0.00374202
0.00775893
0.00986586
0.0102181
0.00895246
0.00626763
0.00254755
-0.171433
-0.160396
-0.144657
-0.128526
-0.112517
-0.0963824
-0.0803283
-0.064793
-0.0502083
-0.0369292
-0.0252186
-0.0152575
-0.00713728
-0.000909002
0.00348257
0.00606143
0.00703622
0.00641467
0.00464666
0.0016016
-0.168505
-0.157213
-0.14249
-0.12728
-0.112073
-0.0968788
-0.0817961
-0.0671031
-0.0531888
-0.0404191
-0.029053
-0.0192656
-0.0111482
-0.00477426
-8.87868e-05
0.00288731
0.00440583
0.00435326
0.00336438
0.000899619
-0.161307
-0.150878
-0.137096
-0.122162
-0.107579
-0.0934879
-0.0796161
-0.0660293
-0.053072
-0.0411086
-0.0303891
-0.0210871
-0.0132846
-0.00706795
-0.00237602
0.000731456
0.0025438
0.0028521
0.00242305
0.000409353
-0.13698
-0.135677
-0.123453
-0.108596
-0.0948805
-0.0823182
-0.0701542
-0.0582216
-0.0468211
-0.0363155
-0.0269287
-0.0188007
-0.0119778
-0.00654038
-0.00241122
0.000319179
0.00196189
0.00222581
0.00196745
0.000132591
-0.111631
-0.114734
-0.104354
-0.0903956
-0.0781226
-0.0676255
-0.0577148
-0.0479307
-0.0384999
-0.0297903
-0.0220184
-0.0153001
-0.00965981
-0.00517471
-0.00176963
0.000442217
0.00177208
0.00188032
0.00165564
-7.64408e-05
-0.0871528
-0.0924862
-0.0845944
-0.0727692
-0.0624838
-0.0540373
-0.0461868
-0.038349
-0.0306917
-0.0235783
-0.0172268
-0.0117468
-0.00715325
-0.00352363
-0.000784965
0.000933214
0.00193841
0.00185539
0.00158065
-0.000141148
-0.0635763
-0.0704632
-0.0652301
-0.0559408
-0.0477356
-0.041135
-0.0350721
-0.0289638
-0.0229211
-0.0172743
-0.0122328
-0.00790351
-0.0042968
-0.00148961
0.000589548
0.00179841
0.00243613
0.00210082
0.00167996
-0.000130599
-0.0414249
-0.0495002
-0.0467386
-0.039957
-0.0337871
-0.0288969
-0.0244449
-0.0199057
-0.0153458
-0.0110512
-0.00721682
-0.00395021
-0.00126247
0.000767557
0.00220827
0.00290697
0.00315222
0.00252327
0.00189104
-7.11552e-05
-0.0211808
-0.03003
-0.0294013
-0.0249396
-0.0206961
-0.0173973
-0.0144056
-0.0112789
-0.00806004
-0.00499487
-0.00226174
3.0664e-05
0.0018677
0.0031674
0.00399448
0.00418843
0.00402683
0.00307626
0.0021876
2.64885e-05
-0.00289836
-0.0121907
-0.0133534
-0.0109701
-0.00849792
-0.00665823
-0.00498354
-0.00312136
-0.00110761
0.000844919
0.00257491
0.00397413
0.00502396
0.00563891
0.00587974
0.00558003
0.00500662
0.00371776
0.00254272
0.000148695
0.0135436
0.00400017
0.00134758
0.00191098
0.00279268
0.00331418
0.00380666
0.00453828
0.00547126
0.00641939
0.00723773
0.00781987
0.00814349
0.00811962
0.00780483
0.00702817
0.00604632
0.00441233
0.00293388
0.00028563
0.0282519
0.018576
0.014695
0.0136906
0.0131688
0.0125138
0.0119505
0.0116738
0.0116404
0.0116856
0.011679
0.0115169
0.0111738
0.0105575
0.00972055
0.0084885
0.00710864
0.00513119
0.0033431
0.000430029
0.0413297
0.0316069
0.0267179
0.0243751
0.0226291
0.0209349
0.0194352
0.0182632
0.0173697
0.0166073
0.0158585
0.0150222
0.0140706
0.0129089
0.0115857
0.00992403
0.00816269
0.00585072
0.00375566
0.000576189
0.0528897
0.0431766
0.0374603
0.033981
0.0311768
0.0285736
0.0262499
0.0242883
0.0226341
0.021154
0.0197419
0.0182993
0.0167967
0.0151371
0.0133659
0.0113041
0.00918298
0.00655157
0.00415954
0.000719608
0.0630348
0.0533643
0.0469689
0.0425299
0.038819
0.0354288
0.0323872
0.0297349
0.027413
0.0253004
0.0233005
0.0213176
0.0193208
0.0172118
0.0150327
0.0126035
0.0101486
0.00721792
0.00454496
0.000856691
0.0718514
0.0622415
0.0552907
0.050047
0.0455666
0.0415025
0.037842
0.034592
0.03169
0.0290258
0.0265108
0.024052
0.0216175
0.0191078
0.0165628
0.0138015
0.0110423
0.00783687
0.00490394
0.000984535
0.0794141
0.0698728
0.0624708
0.0565585
0.0514326
0.0467987
0.042612
0.0388515
0.0354526
0.0323138
0.0293538
0.026482
0.0236657
0.0208048
0.0179371
0.0148812
0.0118502
0.00839793
0.00523003
0.00110079
0.085788
0.0763156
0.0685504
0.0620901
0.0564306
0.0513232
0.0466968
0.0425081
0.0386909
0.0351515
0.0318144
0.028591
0.0254485
0.0222862
0.0191401
0.0158288
0.0125611
0.00889264
0.00551801
0.00120355
0.0910281
0.0816189
0.0735659
0.0666649
0.0605741
0.0550821
0.0500973
0.0455584
0.041398
0.0375289
0.0338805
0.0303662
0.0269525
0.0235387
0.0201595
0.0166335
0.0131658
0.00931424
0.0057637
0.00129131
0.0951782
0.0858215
0.0775464
0.0703025
0.0638748
0.0580816
0.0528152
0.0480003
0.0435688
0.0394387
0.0355433
0.0317973
0.0281671
0.0245521
0.0209857
0.0172868
0.0136574
0.00965748
0.00596383
0.00136285
0.0982717
0.0889521
0.0805125
0.073016
0.0663407
0.0603259
0.0548515
0.0498322
0.0451995
0.0408753
0.0367957
0.0328767
0.0290846
0.0253186
0.0216113
0.0177822
0.0140305
0.00991834
0.00611596
0.00141753
0.10035
0.0910437
0.0824875
0.0748203
0.0679804
0.0618195
0.0562082
0.0510539
0.0462879
0.041835
0.0376332
0.0335993
0.0296993
0.0258327
0.0220311
0.0181152
0.0142809
0.0100945
0.006217
0.0014577
0.10144
0.0921237
0.0834945
0.0757323
0.0688049
0.0625687
0.0568882
0.051666
0.0468331
0.0423157
0.0380525
0.0339615
0.030007
0.0260911
0.0222407
0.018284
0.0144034
0.0101884
0.00625876
0.00149479
0.0932784
0.053971
0.0188217
-0.0120585
-0.0387898
-0.0615484
-0.0808978
-0.0971101
-0.110537
-0.126688
0.11655
0.0789965
0.045413
0.0156798
-0.0101773
-0.0325812
-0.0512439
-0.0680167
-0.0808295
-0.0981196
0.13716
0.101579
0.069738
0.0412713
0.016436
-0.00567
-0.0240181
-0.0415758
-0.0549558
-0.0718442
0.155338
0.121476
0.0910588
0.0635737
0.0394926
0.0175704
-0.000749021
-0.018512
-0.0322632
-0.0479894
0.171334
0.138908
0.109651
0.0829883
0.0595188
0.0379395
0.0197895
0.00248694
-0.0112857
-0.0260118
0.185428
0.154256
0.126016
0.100151
0.07729
0.0562654
0.0384249
0.0217182
0.00790925
-0.00622186
0.197878
0.167829
0.140508
0.115426
0.0931559
0.0727296
0.0551662
0.0389044
0.0250723
0.011398
0.208888
0.17985
0.153353
0.129001
0.107263
0.0873704
0.0700423
0.0541385
0.0404102
0.0271616
0.218619
0.190484
0.164723
0.141031
0.119766
0.100346
0.0832688
0.0677027
0.0541531
0.0412632
0.2272
0.199869
0.174765
0.151664
0.130834
0.111843
0.0950321
0.079769
0.0663952
0.0537991
0.234738
0.208121
0.183604
0.161032
0.140604
0.121997
0.105441
0.0904345
0.0772168
0.0648743
0.241328
0.215342
0.191345
0.169242
0.149179
0.130909
0.114584
0.0997972
0.0867191
0.0745956
0.247041
0.221613
0.198073
0.176381
0.156645
0.138669
0.122549
0.107951
0.0949928
0.0830496
0.251925
0.226987
0.203852
0.182521
0.163076
0.145353
0.129412
0.114972
0.10211
0.0903076
0.256023
0.231508
0.208735
0.187723
0.16853
0.151023
0.135234
0.120921
0.108131
0.0964317
0.25937
0.235224
0.212771
0.192033
0.173058
0.15573
0.140065
0.125849
0.113108
0.101475
0.262007
0.238176
0.215996
0.195491
0.176697
0.159516
0.143945
0.129799
0.117081
0.105481
0.263961
0.240394
0.218443
0.198129
0.179482
0.162413
0.146911
0.132804
0.120084
0.108481
0.265246
0.241898
0.220139
0.199983
0.181454
0.164468
0.149008
0.134914
0.122168
0.110526
0.265814
0.242635
0.22102
0.200986
0.182546
0.165622
0.150189
0.136101
0.123325
0.111632
0.651922
0.65104
0.64199
0.626174
0.604329
0.575225
0.53548
0.480716
0.411423
0.367055
0.596291
0.58929
0.571591
0.548675
0.520497
0.484165
0.435575
0.370459
0.289672
0.237458
0.537724
0.524059
0.499667
0.470832
0.436486
0.39286
0.335687
0.261066
0.169824
0.111562
0.472818
0.45443
0.425953
0.392745
0.352993
0.302651
0.237675
0.154987
0.0547469
-0.00687817
0.406173
0.383967
0.352412
0.315602
0.27118
0.215001
0.143206
0.0540321
-0.0521263
-0.114511
0.340941
0.315257
0.281059
0.24112
0.192696
0.131672
0.0543045
-0.0408693
-0.145937
-0.209389
0.278301
0.249567
0.213238
0.170783
0.119139
0.0543836
-0.0269282
-0.124614
-0.22707
-0.289864
0.219036
0.187774
0.149921
0.105725
0.0517982
-0.0154212
-0.09851
-0.196131
-0.29436
-0.354588
0.163655
0.130536
0.0920656
0.046677
-0.00863301
-0.0767619
-0.159691
-0.254794
-0.346459
-0.402861
0.111366
0.0785848
0.0400398
-0.00582919
-0.0614392
-0.129117
-0.210024
-0.300043
-0.382879
-0.434828
1.03007
1.04313
1.0587
1.07684
1.09749
1.1204
1.14481
1.16858
1.18941
1.21443
1.02389
1.03597
1.0508
1.06815
1.08781
1.1095
1.13241
1.15435
1.17297
1.19635
1.01144
1.0216
1.03497
1.05076
1.06848
1.08774
1.10767
1.12594
1.14036
1.16026
0.992527
0.999937
1.0112
1.02473
1.03959
1.0553
1.07085
1.08374
1.09203
1.10682
0.966995
0.970945
0.979549
0.99015
1.00132
1.01244
1.02234
1.02828
1.02864
1.03692
0.934636
0.93453
0.940013
0.947144
0.953916
0.959566
0.962707
0.960321
0.951155
0.951791
0.895435
0.890876
0.892986
0.89621
0.897944
0.897327
0.892762
0.880912
0.860873
0.853035
0.848503
0.839396
0.838386
0.837648
0.833977
0.826549
0.813589
0.79143
0.759479
0.742669
0.794648
0.781288
0.777556
0.772458
0.762847
0.748204
0.726444
0.69351
0.649076
0.622999
0.728873
0.716867
0.712007
0.702127
0.686142
0.664017
0.633166
0.589216
0.532175
0.49673
0.99843
0.995336
0.992662
0.9903
0.9881
0.986068
0.984285
0.982828
0.981761
0.981149
0.981063
0.981585
0.982795
0.984783
0.987651
0.991507
0.996472
1.00267
1.01024
1.01928
0.998371
0.995199
0.992421
0.989927
0.987589
0.985419
0.983493
0.981884
0.980653
0.979861
0.97958
0.979894
0.980868
0.982584
0.985139
0.988634
0.993179
0.998879
1.00587
1.01417
0.998286
0.994923
0.991906
0.989151
0.986548
0.984107
0.981898
0.979984
0.978422
0.977267
0.976598
0.976486
0.97699
0.978166
0.980092
0.982856
0.986551
0.991246
0.997041
1.00384
0.998147
0.994483
0.991104
0.987964
0.984969
0.982126
0.979492
0.977124
0.975066
0.973358
0.972099
0.971334
0.971112
0.971473
0.972456
0.97411
0.976499
0.979641
0.983597
0.988051
0.997952
0.993874
0.990012
0.986358
0.982842
0.979459
0.976252
0.973263
0.970533
0.968121
0.966085
0.964438
0.963207
0.962432
0.962136
0.962296
0.962919
0.963926
0.965355
0.966567
0.997696
0.993085
0.988618
0.984327
0.980159
0.976104
0.972188
0.968443
0.964839
0.96157
0.958569
0.955813
0.953313
0.951073
0.949086
0.947294
0.945651
0.943916
0.942105
0.939101
0.997373
0.992104
0.986915
0.981867
0.976921
0.972058
0.967277
0.962521
0.958069
0.953778
0.949585
0.945482
0.94146
0.937467
0.933446
0.929239
0.924769
0.919595
0.913864
0.905658
0.996983
0.990928
0.984886
0.978945
0.973092
0.967244
0.961391
0.955791
0.950265
0.944716
0.939127
0.933466
0.92768
0.921648
0.915259
0.908219
0.900417
0.891037
0.880418
0.865451
0.996559
0.989656
0.98271
0.975685
0.968712
0.961864
0.955145
0.948381
0.941519
0.934528
0.927362
0.919935
0.912145
0.90379
0.894719
0.884461
0.872953
0.858817
0.842892
0.819827
0.995952
0.987844
0.979729
0.971753
0.963801
0.955817
0.947767
0.939599
0.931252
0.922649
0.913695
0.90424
0.894122
0.883018
0.870704
0.856384
0.840037
0.819247
0.796102
0.761592
0.995564
0.986688
0.97779
0.96885
0.95982
0.950666
0.941351
0.931812
0.92196
0.911681
0.900843
0.889248
0.876682
0.862753
0.847149
0.82899
0.807942
0.781503
0.749402
0.702888
0.995192
0.985575
0.975889
0.966089
0.956159
0.946067
0.935754
0.925138
0.914117
0.902563
0.890328
0.877198
0.862949
0.84718
0.829578
0.809316
0.78605
0.758042
0.725364
0.685777
0.994826
0.984478
0.974013
0.963386
0.952598
0.941609
0.930349
0.918721
0.906621
0.893912
0.880446
0.866007
0.850378
0.83319
0.814159
0.792627
0.768329
0.740242
0.708366
0.671467
0.994463
0.983391
0.972153
0.960705
0.949063
0.937188
0.925
0.912395
0.899263
0.885471
0.870869
0.855251
0.838416
0.820039
0.799874
0.777419
0.752473
0.724319
0.692928
0.657197
0.994103
0.98232
0.970323
0.958069
0.945591
0.932859
0.919784
0.906258
0.892169
0.877385
0.861764
0.845117
0.827258
0.807911
0.786872
0.763739
0.738374
0.710196
0.679295
0.644697
0.993751
0.981275
0.968544
0.95551
0.942231
0.928683
0.914774
0.900392
0.885426
0.86975
0.853232
0.8357
0.816991
0.796869
0.775168
0.751563
0.725969
0.697913
0.667584
0.634102
0.993411
0.980267
0.966834
0.953056
0.939016
0.9247
0.910014
0.894844
0.879083
0.862612
0.84531
0.827024
0.807612
0.786874
0.76468
0.740764
0.715085
0.687259
0.657507
0.625037
0.993085
0.979305
0.965208
0.95073
0.935975
0.920942
0.905539
0.889652
0.873175
0.855999
0.838017
0.819091
0.799102
0.77788
0.755323
0.731216
0.705549
0.678006
0.648805
0.617256
0.992776
0.978398
0.96368
0.948549
0.933129
0.917435
0.901377
0.88484
0.867724
0.849931
0.831361
0.811897
0.791436
0.769836
0.747018
0.722808
0.697214
0.669981
0.641307
0.610608
0.992488
0.977551
0.962259
0.946525
0.930496
0.914199
0.897547
0.880429
0.862748
0.844414
0.825341
0.805427
0.784582
0.762691
0.73969
0.715442
0.689961
0.663048
0.634875
0.604959
0.992222
0.97677
0.960952
0.944671
0.928089
0.911247
0.894063
0.876429
0.858252
0.839451
0.81995
0.79966
0.778507
0.756392
0.733269
0.709027
0.683686
0.657091
0.629387
0.600186
0.991979
0.97606
0.959767
0.942994
0.925916
0.908588
0.890933
0.872845
0.854237
0.835035
0.815172
0.794573
0.773172
0.75089
0.727689
0.703484
0.678294
0.652006
0.624736
0.596182
0.991762
0.975422
0.958707
0.941499
0.923984
0.906228
0.888161
0.869679
0.8507
0.831157
0.810992
0.790138
0.768541
0.746135
0.722889
0.698741
0.673706
0.647705
0.620829
0.592851
0.99157
0.97486
0.957777
0.940189
0.922295
0.904169
0.885746
0.866927
0.847634
0.827805
0.807389
0.78633
0.764578
0.742082
0.718816
0.694734
0.669848
0.64411
0.617584
0.590112
0.991404
0.974376
0.956977
0.939068
0.920851
0.902411
0.883687
0.864586
0.84503
0.824966
0.804345
0.783121
0.76125
0.738691
0.715419
0.691406
0.666659
0.641153
0.614932
0.587896
0.991266
0.97397
0.95631
0.938137
0.919654
0.900953
0.881982
0.862648
0.842879
0.822625
0.801842
0.780488
0.758527
0.735923
0.712657
0.688709
0.664085
0.638778
0.612815
0.586144
0.991154
0.973644
0.955778
0.937396
0.9187
0.899792
0.880624
0.861108
0.841173
0.82077
0.799861
0.77841
0.756381
0.733748
0.710492
0.686603
0.662082
0.636939
0.611186
0.584807
0.991074
0.973407
0.955391
0.93685
0.91799
0.898924
0.879611
0.85996
0.839901
0.819389
0.798389
0.776868
0.754792
0.732141
0.708895
0.685053
0.660614
0.635599
0.610007
0.58385
0.991031
0.973278
0.95517
0.936511
0.917528
0.89835
0.878938
0.859198
0.839058
0.818475
0.797415
0.775847
0.753743
0.73108
0.707844
0.684035
0.659653
0.634728
0.609252
0.583254
0.990942
0.973203
0.955102
0.936375
0.917312
0.898068
0.878604
0.858819
0.838639
0.81802
0.79693
0.77534
0.753221
0.730553
0.707322
0.683531
0.659179
0.6343
0.608891
0.583
0.648091
0.591017
0.535241
0.475331
0.413263
0.35252
0.294108
0.238251
0.185358
0.136962
0.641416
0.582393
0.525751
0.470122
0.412921
0.356582
0.302545
0.250937
0.202399
0.157856
0.630118
0.573776
0.518366
0.466701
0.414325
0.361979
0.311556
0.263528
0.218289
0.176225
0.618552
0.566179
0.512927
0.464125
0.415711
0.366954
0.319646
0.274584
0.232046
0.192321
0.608139
0.559409
0.508799
0.462386
0.417196
0.371635
0.327058
0.284491
0.244269
0.20654
0.599019
0.553412
0.505605
0.461366
0.418772
0.375964
0.3338
0.293374
0.255117
0.21911
0.591114
0.548195
0.503102
0.46089
0.420418
0.379932
0.339892
0.301323
0.264747
0.230232
0.584341
0.543745
0.501141
0.4608
0.4221
0.383554
0.345363
0.308421
0.273295
0.24008
0.578595
0.540005
0.499611
0.460964
0.423768
0.386844
0.35025
0.314733
0.280868
0.248791
0.573756
0.536894
0.498424
0.461282
0.425378
0.389812
0.354587
0.320318
0.287556
0.256475
0.569708
0.534328
0.49751
0.461683
0.426886
0.392464
0.358406
0.325225
0.293431
0.263224
0.566346
0.532226
0.496808
0.462109
0.42826
0.3948
0.361734
0.329495
0.298549
0.269118
0.563575
0.530512
0.496263
0.462518
0.429472
0.39682
0.364594
0.333163
0.302945
0.274185
0.561313
0.529118
0.49583
0.462876
0.4305
0.398524
0.367004
0.336264
0.306675
0.278479
0.55949
0.527987
0.495469
0.463154
0.431327
0.399909
0.36898
0.338829
0.309795
0.282125
0.558049
0.527071
0.495146
0.463329
0.431938
0.400971
0.370528
0.340873
0.312312
0.28508
0.556939
0.526331
0.494837
0.463387
0.432326
0.40171
0.371658
0.342409
0.314242
0.287381
0.556121
0.52573
0.494513
0.463309
0.43248
0.402127
0.372378
0.343453
0.315609
0.289052
0.555576
0.525241
0.49413
0.463036
0.432341
0.402171
0.372652
0.343985
0.316406
0.290113
0.555352
0.524968
0.493794
0.462641
0.431941
0.40184
0.372452
0.343953
0.316561
0.290462
)
;

boundaryField
{
    bottom
    {
        type            symmetryPlane;
    }
    right
    {
        type            fixedValue;
        value           uniform 0;
    }
    top
    {
        type            symmetryPlane;
    }
    left
    {
        type            fixedValue;
        value           uniform 1;
    }
    cylinder
    {
        type            zeroGradient;
    }
    defaultFaces
    {
        type            empty;
    }
}


// ************************************************************************* //
