/*--------------------------------*- C++ -*----------------------------------*\
| =========                 |                                                 |
| \\      /  F ield         | OpenFOAM: The Open Source CFD Toolbox           |
|  \\    /   O peration     | Version:  4.1                                   |
|   \\  /    A nd           | Web:      www.OpenFOAM.org                      |
|    \\/     M anipulation  |                                                 |
\*---------------------------------------------------------------------------*/
FoamFile
{
    version     2.0;
    format      ascii;
    class       volScalarField;
    location    "5";
    object      p;
}
// * * * * * * * * * * * * * * * * * * * * * * * * * * * * * * * * * * * * * //

dimensions      [0 2 -2 0 0 0 0];

internalField   nonuniform List<scalar> 
3800
(
-0.552051
-0.546766
-0.537033
-0.527931
-0.524109
-0.527538
-0.536899
-0.552539
-0.566165
-0.583153
-0.554947
-0.550534
-0.541259
-0.532233
-0.526849
-0.52651
-0.530429
-0.536412
-0.541503
-0.546135
-0.563163
-0.558582
-0.549928
-0.540455
-0.532791
-0.527629
-0.524123
-0.521527
-0.518141
-0.514222
-0.576172
-0.570078
-0.560289
-0.549636
-0.538337
-0.527082
-0.51638
-0.506502
-0.496305
-0.488388
-0.593442
-0.584103
-0.572223
-0.558631
-0.541856
-0.523922
-0.506707
-0.490712
-0.476178
-0.464478
-0.615916
-0.600223
-0.586017
-0.566691
-0.542591
-0.51777
-0.494612
-0.473913
-0.455741
-0.440903
-0.644064
-0.619885
-0.600178
-0.572055
-0.539619
-0.508163
-0.479942
-0.455278
-0.434228
-0.416615
-0.674541
-0.644076
-0.612493
-0.5729
-0.532077
-0.49478
-0.462245
-0.434406
-0.410815
-0.390529
-0.699973
-0.667688
-0.620773
-0.568287
-0.519454
-0.477093
-0.441086
-0.410689
-0.384931
-0.36256
-0.717636
-0.68325
-0.621702
-0.557336
-0.501314
-0.454641
-0.415843
-0.383533
-0.356194
-0.332504
-0.445419
-0.463381
-0.488833
-0.522546
-0.561133
-0.601991
-0.64324
-0.683391
-0.720621
-0.752443
-0.460204
-0.476824
-0.501473
-0.534787
-0.573264
-0.61421
-0.655648
-0.696026
-0.733534
-0.765765
-0.484952
-0.498912
-0.521929
-0.55411
-0.591843
-0.632316
-0.6734
-0.713464
-0.751008
-0.784363
-0.51194
-0.522252
-0.542712
-0.572762
-0.608625
-0.647453
-0.687063
-0.725763
-0.762243
-0.796061
-0.534687
-0.540536
-0.557418
-0.584097
-0.616657
-0.652406
-0.689198
-0.725527
-0.760017
-0.791644
-0.549765
-0.550846
-0.562961
-0.584519
-0.61204
-0.643089
-0.675887
-0.708671
-0.741345
-0.769767
-0.557099
-0.553722
-0.559805
-0.574299
-0.594934
-0.61979
-0.647757
-0.676011
-0.706736
-0.731894
-0.558531
-0.552115
-0.551833
-0.557895
-0.570161
-0.58773
-0.61039
-0.634271
-0.66343
-0.686993
-0.556511
-0.549147
-0.543638
-0.541786
-0.545882
-0.55668
-0.574519
-0.596414
-0.625186
-0.648946
-0.553474
-0.546806
-0.538147
-0.53097
-0.529454
-0.535965
-0.549831
-0.570242
-0.594137
-0.619217
-0.787519
-0.81567
-0.827744
-0.823109
-0.805465
-0.775542
-0.734047
-0.680451
-0.614285
-0.535066
-0.443957
-0.344387
-0.24274
-0.146604
-0.0629263
0.00455131
0.0529001
0.0845349
0.102452
0.110093
0.110618
0.106621
0.0999929
0.092027
0.0835695
0.0751527
0.0670944
0.0595714
0.0526696
0.0464172
0.0408068
0.0358096
0.0313846
0.0274846
0.0240599
0.0210611
0.018441
0.0161551
0.0141624
0.0124252
0.0109099
0.00958655
0.00842912
0.00741517
0.0065254
0.00574328
0.00505462
0.00444734
0.00391124
0.0034377
0.0030194
0.00265012
0.00232428
0.00203706
0.00178411
0.00156155
0.00136653
0.0011957
0.00104318
0.000908415
0.000789656
0.000686121
0.000595815
0.000516901
0.00044789
0.000387519
0.000334622
0.000288248
0.000247483
0.00021167
0.000180051
0.000152197
0.000127371
0.000105382
8.53837e-05
6.75141e-05
5.06434e-05
3.54855e-05
2.03354e-05
7.34439e-06
-0.801694
-0.82885
-0.840516
-0.835678
-0.818018
-0.788733
-0.748738
-0.697529
-0.634228
-0.557828
-0.468583
-0.369211
-0.266258
-0.167766
-0.0806625
-0.00864613
0.0419389
0.0755859
0.0951845
0.104247
0.105951
0.102879
0.0969878
0.0896178
0.081638
0.0735983
0.0658354
0.0585436
0.0518228
0.0457124
0.040214
0.035306
0.0309527
0.0271111
0.0237346
0.0207764
0.018191
0.0159351
0.0139687
0.0122546
0.0107598
0.00945451
0.0083132
0.00731361
0.00643662
0.00566582
0.00498712
0.00438858
0.00386013
0.00339329
0.00298088
0.00261671
0.00229538
0.00201202
0.00176237
0.00154269
0.00134979
0.00118053
0.00102985
0.000897261
0.000780343
0.000678166
0.000588944
0.000510958
0.000442745
0.000383059
0.000330752
0.000284892
0.000244575
0.000209159
0.000177892
0.000150362
0.000125826
0.000104105
8.43444e-05
6.67029e-05
5.00287e-05
3.50704e-05
2.00791e-05
7.27063e-06
-0.822635
-0.847854
-0.858571
-0.853515
-0.836017
-0.808032
-0.770595
-0.723413
-0.665133
-0.594228
-0.50981
-0.411996
-0.307748
-0.20445
-0.111253
-0.0358951
0.0195384
0.057054
0.0798986
0.0917636
0.0959255
0.0948758
0.0905829
0.0844845
0.0775244
0.0702969
0.0631735
0.056382
0.0500526
0.0442494
0.0389935
0.0342783
0.0300797
0.0263633
0.0230894
0.0202163
0.0177026
0.0155078
0.013594
0.0119255
0.0104705
0.00920035
0.00809005
0.00711796
0.00626533
0.00551604
0.0048563
0.00427443
0.00376064
0.00330669
0.00290562
0.00255135
0.00223863
0.00196272
0.00171945
0.00150519
0.00131674
0.00115085
0.00100356
0.000875319
0.000761976
0.000662448
0.000575355
0.000499178
0.000432515
0.000374167
0.000323023
0.000278186
0.000238772
0.000204154
0.000173605
0.000146717
0.000122764
0.000101567
8.22888e-05
6.50811e-05
4.88144e-05
3.42197e-05
1.95846e-05
7.08286e-06
-0.837662
-0.862606
-0.873197
-0.869122
-0.852722
-0.826748
-0.792408
-0.749701
-0.697117
-0.63283
-0.554725
-0.458641
-0.354874
-0.249424
-0.153024
-0.0731791
-0.0127082
0.0295488
0.0567399
0.0725447
0.0802358
0.082296
0.0805367
0.0764373
0.0710642
0.0651046
0.0589897
0.052994
0.0472899
0.0419783
0.0371106
0.032704
0.0287527
0.0252362
0.0221254
0.0193868
0.016985
0.0148843
0.0130502
0.0114499
0.0100537
0.00883472
0.00776925
0.00683657
0.00601864
0.00529991
0.00466709
0.00410894
0.00361608
0.00318058
0.00279573
0.0024557
0.00215534
0.00189016
0.00165612
0.00144967
0.00126774
0.00110722
0.000965396
0.000843556
0.00073487
0.000638981
0.000555027
0.000481568
0.00041723
0.000360887
0.000311487
0.000268173
0.000230106
0.000196688
0.000167212
0.000141285
0.000118201
9.77823e-05
7.92195e-05
6.26533e-05
4.69953e-05
3.29377e-05
1.88436e-05
6.79174e-06
-0.835391
-0.864344
-0.877932
-0.877702
-0.864508
-0.841529
-0.810501
-0.77178
-0.724249
-0.665586
-0.592888
-0.504072
-0.403335
-0.298308
-0.200115
-0.116857
-0.0519585
-0.00484184
0.0272555
0.0477183
0.0596634
0.065542
0.0670884
0.0656555
0.0623838
0.0580907
0.0533086
0.0483803
0.0435282
0.0388942
0.0345649
0.0305872
0.0269791
0.0237392
0.0208532
0.0182991
0.0160498
0.0140762
0.0123489
0.010839
0.00952008
0.00836762
0.00735987
0.00647753
0.00570368
0.00502362
0.00442482
0.00389665
0.00343023
0.00301807
0.00265379
0.00233182
0.00204727
0.00179581
0.00157371
0.00137741
0.00120377
0.00105073
0.000915623
0.000802739
0.00069969
0.000608137
0.000528064
0.00045814
0.000396893
0.000343248
0.000296196
0.000254919
0.00021864
0.000186811
0.000158755
0.000134096
0.000112159
9.2768e-05
7.51511e-05
5.94316e-05
4.45793e-05
3.12325e-05
1.78594e-05
6.40369e-06
-0.810743
-0.846515
-0.868823
-0.875092
-0.867579
-0.849594
-0.823163
-0.788685
-0.74559
-0.692006
-0.625038
-0.542653
-0.447006
-0.345245
-0.247714
-0.162889
-0.0947143
-0.0431871
-0.00615308
0.0192263
0.0357289
0.0457057
0.0509232
0.0526159
0.0518551
0.0495382
0.0463209
0.0426487
0.0388142
0.0350072
0.0313498
0.0279169
0.0247499
0.0218674
0.0192721
0.0169553
0.0149012
0.013089
0.0114961
0.0100992
0.00887585
0.00780509
0.00686764
0.00604616
0.00532528
0.00469151
0.00413331
0.00364088
0.00320598
0.00282163
0.00248188
0.00218147
0.00191586
0.00168099
0.00147326
0.00128962
0.001127
0.000983846
0.000864883
0.000751801
0.000655967
0.000570658
0.000495204
0.000429332
0.000371732
0.000321353
0.000277189
0.000238448
0.000204403
0.000174555
0.000148267
0.000125182
0.000104666
8.65477e-05
7.01029e-05
5.54316e-05
4.15788e-05
2.91124e-05
1.66357e-05
5.91976e-06
-0.768043
-0.810677
-0.843503
-0.859546
-0.860083
-0.848816
-0.827743
-0.797769
-0.758644
-0.709095
-0.647075
-0.570878
-0.481804
-0.385692
-0.291581
-0.207506
-0.137674
-0.0827003
-0.0412244
-0.0111396
0.0098482
0.0238922
0.0327666
0.0377705
0.0398292
0.0397889
0.0383596
0.0360924
0.0333761
0.0304736
0.0275582
0.0247387
0.0220802
0.0196193
0.017373
0.0153448
0.0135292
0.0119148
0.0104863
0.00922693
0.00811934
0.00714667
0.00629298
0.00554348
0.00488481
0.00430514
0.00379421
0.00334326
0.00294487
0.00259272
0.0022813
0.00200584
0.00176214
0.00154648
0.00135557
0.00118671
0.00103723
0.000905062
0.000789559
0.000688492
0.00060043
0.000524606
0.000456158
0.00039544
0.000342177
0.000295648
0.000254791
0.000218941
0.000187501
0.000159998
0.000135809
0.000114591
9.57613e-05
7.91525e-05
6.40973e-05
5.06702e-05
3.80048e-05
2.6585e-05
1.5174e-05
5.33987e-06
-0.720812
-0.7666
-0.806463
-0.831416
-0.841187
-0.83793
-0.823356
-0.798504
-0.7633
-0.716925
-0.658336
-0.587345
-0.505827
-0.417954
-0.330448
-0.249951
-0.180557
-0.123461
-0.0782459
-0.0437456
-0.0183123
-0.000140003
0.0124263
0.0207393
0.025821
0.0284243
0.0291743
0.0286414
0.02728
0.0254344
0.0233542
0.0212065
0.0190973
0.0170909
0.0152233
0.013512
0.0119621
0.0105707
0.00932963
0.00822818
0.00725413
0.00639485
0.00563787
0.00497127
0.00438405
0.00386629
0.00340929
0.00300556
0.00264862
0.00233291
0.00205355
0.00180628
0.00158732
0.00139334
0.0012215
0.00106932
0.000934626
0.000815608
0.000710412
0.000617563
0.000538278
0.000469319
0.000408671
0.000354989
0.000307442
0.00026585
0.000229122
0.000196622
0.000168131
0.000143299
0.000121506
0.000102423
8.55244e-05
7.06442e-05
5.71811e-05
4.51825e-05
3.38814e-05
2.36702e-05
1.34851e-05
4.67121e-06
-0.682021
-0.724272
-0.764355
-0.795275
-0.812667
-0.817419
-0.809649
-0.790405
-0.759757
-0.71745
-0.663223
-0.597597
-0.523088
-0.444421
-0.365706
-0.291106
-0.224141
-0.16642
-0.118343
-0.0797643
-0.0498497
-0.0272931
-0.0107107
0.00114087
0.00930033
0.0146211
0.0178057
0.0193779
0.0197669
0.0193301
0.018366
0.0170987
0.0156877
0.0142401
0.0128239
0.0114805
0.0102327
0.00909112
0.00805803
0.00713079
0.00630357
0.00556876
0.00491785
0.00434213
0.00383319
0.00338327
0.00298537
0.00263336
0.00232183
0.00204606
0.00180184
0.00158546
0.00139363
0.0012235
0.00107264
0.000938888
0.000820457
0.000715697
0.000623174
0.000541661
0.000471376
0.000409896
0.000356244
0.000308885
0.000267731
0.000231346
0.000199366
0.000171074
0.000146155
0.000124421
0.000105367
8.87138e-05
7.39974e-05
6.10664e-05
4.9393e-05
3.90028e-05
2.9234e-05
2.0393e-05
1.15911e-05
3.94353e-06
-0.656008
-0.689274
-0.721261
-0.75017
-0.77043
-0.778113
-0.775093
-0.761055
-0.735345
-0.698011
-0.649559
-0.591063
-0.524605
-0.453683
-0.382124
-0.313439
-0.250615
-0.195412
-0.147931
-0.108373
-0.0764839
-0.0514387
-0.0321907
-0.017704
-0.00705015
0.000558626
0.00577373
0.00913814
0.0111156
0.0120792
0.0123124
0.0120484
0.0114697
0.0107094
0.00986031
0.00898498
0.0081241
0.00730268
0.00653509
0.00582849
0.00518524
0.00460445
0.00408314
0.00361712
0.00320163
0.00283184
0.00250312
0.00221117
0.00195203
0.00172207
0.00151799
0.00133679
0.00117582
0.00103276
0.00090563
0.000792731
0.000692622
0.000604005
0.000525777
0.000457057
0.000396966
0.000344088
0.000298606
0.00025925
0.000224405
0.000193427
0.000166019
0.00014225
0.000121497
0.000103278
8.73036e-05
7.338e-05
6.1109e-05
5.036e-05
4.06821e-05
3.2088e-05
2.40203e-05
1.67191e-05
9.46059e-06
3.17198e-06
-0.626842
-0.662473
-0.692438
-0.716675
-0.733363
-0.740411
-0.737278
-0.72303
-0.69713
-0.659963
-0.612584
-0.556629
-0.494511
-0.429464
-0.36477
-0.303112
-0.246594
-0.196566
-0.153337
-0.116893
-0.0869504
-0.0628928
-0.0439107
-0.0291767
-0.0179354
-0.00952553
-0.00337713
0.000981509
0.00394096
0.0058217
0.00688884
0.00736685
0.00743647
0.00723527
0.0068647
0.00639772
0.00588533
0.00536202
0.00485031
0.00436415
0.00391141
0.00349568
0.00311767
0.00277623
0.0024692
0.0021939
0.00194756
0.00172742
0.00153086
0.00135543
0.00119884
0.00105899
0.000934064
0.000822441
0.000722759
0.000633854
0.000554699
0.000484392
0.000422123
0.000367211
0.000318967
0.000276804
0.000240167
0.00020788
0.000179236
0.000153928
0.00013189
0.000112835
9.60975e-05
8.14111e-05
6.8579e-05
5.74415e-05
4.76741e-05
3.91645e-05
3.15395e-05
2.47985e-05
1.84847e-05
1.27877e-05
7.12396e-06
2.32084e-06
-0.593399
-0.636377
-0.665796
-0.684046
-0.69428
-0.697494
-0.6924
-0.677177
-0.651221
-0.615181
-0.570463
-0.518927
-0.4629
-0.404994
-0.34772
-0.293145
-0.242837
-0.197858
-0.158568
-0.124921
-0.0967145
-0.0735429
-0.0548217
-0.0399076
-0.0281902
-0.0191199
-0.0122141
-0.00706303
-0.00331663
-0.000674091
0.00111903
0.00227529
0.00296685
0.00332779
0.00345955
0.00343732
0.00331576
0.00313392
0.00291915
0.00269028
0.00245988
0.00223598
0.00202337
0.00182463
0.00164086
0.00147227
0.00131849
0.00117882
0.00105234
0.000937988
0.000834686
0.000741374
0.000657088
0.000580999
0.000512408
0.000450711
0.000395375
0.000345942
0.000301968
0.000263033
0.000228676
0.000198457
0.000171876
0.000148428
0.000127768
0.000109622
9.37341e-05
7.984e-05
6.76776e-05
5.70867e-05
4.78831e-05
3.99435e-05
3.30225e-05
2.70341e-05
2.16896e-05
1.69858e-05
1.25734e-05
8.59883e-06
4.62809e-06
1.39164e-06
-0.560815
-0.607249
-0.633797
-0.646177
-0.651219
-0.651317
-0.644814
-0.629764
-0.605476
-0.572526
-0.532313
-0.486641
-0.437392
-0.386484
-0.335837
-0.287164
-0.241798
-0.200672
-0.164248
-0.132618
-0.105684
-0.0831747
-0.0646524
-0.0496011
-0.0375113
-0.0279158
-0.0203959
-0.0145837
-0.0101577
-0.00683925
-0.00439206
-0.00261833
-0.00135538
-0.000473614
0.000127312
0.000523716
0.000772886
0.000917351
0.000988427
0.00100902
0.000995755
0.000960513
0.000911707
0.000855204
0.00079506
0.000734044
0.000674005
0.000616104
0.000561
0.000508993
0.000460159
0.000414455
0.000371807
0.00033216
0.000295486
0.00026176
0.00023095
0.000203005
0.000177816
0.000155236
0.000135085
0.000117204
0.000101379
8.73615e-05
7.49214e-05
6.38987e-05
5.41765e-05
4.56949e-05
3.83387e-05
3.19973e-05
2.65458e-05
2.1912e-05
1.79312e-05
1.45457e-05
1.15546e-05
8.95539e-06
6.50774e-06
4.31812e-06
2.10817e-06
4.96598e-07
-0.532541
-0.575255
-0.598444
-0.60761
-0.610018
-0.608099
-0.600802
-0.586532
-0.564504
-0.535049
-0.499302
-0.458755
-0.414974
-0.369566
-0.324175
-0.280311
-0.239153
-0.20152
-0.167867
-0.138334
-0.112859
-0.0912353
-0.0731343
-0.0581516
-0.0458742
-0.0359135
-0.027912
-0.0215471
-0.0165323
-0.012617
-0.00958575
-0.0072553
-0.00547258
-0.00411326
-0.00307898
-0.00229314
-0.0016967
-0.00124443
-0.000901863
-0.000642713
-0.00044699
-0.000299517
-0.000188783
-0.000106047
-4.4663e-05
4.29769e-07
3.30737e-05
5.61556e-05
7.18234e-05
8.16765e-05
8.69253e-05
8.85278e-05
8.72852e-05
8.39036e-05
7.90081e-05
7.31355e-05
6.67243e-05
6.01243e-05
5.35924e-05
4.73007e-05
4.13565e-05
3.58357e-05
3.07337e-05
2.60154e-05
2.16791e-05
1.7763e-05
1.42984e-05
1.13142e-05
8.78959e-06
6.70224e-06
5.01235e-06
3.69865e-06
2.67592e-06
1.91382e-06
1.29873e-06
8.28952e-07
3.72937e-07
-3.3015e-09
-4.25924e-07
-4.01873e-07
-0.505274
-0.542875
-0.564027
-0.571952
-0.572929
-0.56969
-0.562046
-0.548727
-0.528844
-0.502473
-0.470488
-0.43418
-0.394978
-0.35433
-0.313639
-0.274146
-0.236829
-0.202377
-0.17122
-0.143541
-0.119343
-0.0985011
-0.0807826
-0.0658816
-0.0534653
-0.0432078
-0.0348021
-0.0279654
-0.0224426
-0.0180073
-0.0144617
-0.0116355
-0.00938492
-0.00759132
-0.00615912
-0.00501243
-0.00409145
-0.00334926
-0.00274909
-0.00226207
-0.00186548
-0.00154141
-0.00127569
-0.00105709
-0.000876685
-0.000727348
-0.000603425
-0.000500432
-0.000414818
-0.000343744
-0.000284904
-0.000236372
-0.000196497
-0.00016384
-0.000137141
-0.000115316
-9.74568e-05
-8.28086e-05
-7.07578e-05
-6.08267e-05
-5.26429e-05
-4.58861e-05
-4.03082e-05
-3.57031e-05
-3.18676e-05
-2.86159e-05
-2.5795e-05
-2.32732e-05
-2.09547e-05
-1.8773e-05
-1.66843e-05
-1.46609e-05
-1.27079e-05
-1.08286e-05
-9.04904e-06
-7.37088e-06
-5.81621e-06
-4.36379e-06
-2.98579e-06
-1.31933e-06
-0.478469
-0.512845
-0.532645
-0.539882
-0.540044
-0.536121
-0.528444
-0.51599
-0.497889
-0.474079
-0.445273
-0.412624
-0.377428
-0.340937
-0.304299
-0.268526
-0.234452
-0.202705
-0.17371
-0.147686
-0.124686
-0.104636
-0.087369
-0.0726456
-0.0601962
-0.0497484
-0.0410402
-0.0338266
-0.0278821
-0.0230036
-0.019011
-0.0157472
-0.0130784
-0.0108922
-0.00909677
-0.00761779
-0.00639555
-0.00538225
-0.00453957
-0.00383667
-0.00324867
-0.00275541
-0.00234047
-0.0019905
-0.00169455
-0.00144369
-0.00123064
-0.00104945
-0.000895266
-0.000764083
-0.000652552
-0.000557821
-0.000477427
-0.000409222
-0.000351334
-0.000302152
-0.000260313
-0.000224672
-0.000194275
-0.000168331
-0.00014618
-0.000127248
-0.000111044
-9.7152e-05
-8.51921e-05
-7.48294e-05
-6.57707e-05
-5.77713e-05
-5.06261e-05
-4.41895e-05
-3.83346e-05
-3.29856e-05
-2.80663e-05
-2.35531e-05
-1.93834e-05
-1.55611e-05
-1.19969e-05
-8.72085e-06
-5.54378e-06
-2.2409e-06
-0.454645
-0.486221
-0.504521
-0.511292
-0.511
-0.506844
-0.499304
-0.487601
-0.470979
-0.449347
-0.423303
-0.393856
-0.362121
-0.329159
-0.295933
-0.263309
-0.232027
-0.202666
-0.175624
-0.151128
-0.129257
-0.109978
-0.0931719
-0.0786592
-0.0662258
-0.0556471
-0.0467018
-0.039178
-0.0328771
-0.027617
-0.0232339
-0.0195837
-0.0165416
-0.0140018
-0.0118765
-0.0100933
-0.00859324
-0.00732828
-0.00625906
-0.00535333
-0.00458449
-0.00393056
-0.00337328
-0.00289745
-0.00249041
-0.00214167
-0.00184246
-0.00158552
-0.00136479
-0.00117519
-0.00101237
-0.000872608
-0.000752675
-0.000649748
-0.000561378
-0.000485451
-0.00042017
-0.000364007
-0.000315667
-0.000274045
-0.000238203
-0.000207325
-0.000180695
-0.000157693
-0.000137758
-0.000120404
-0.000105201
-9.1802e-05
-7.98984e-05
-6.9269e-05
-5.97024e-05
-5.10754e-05
-4.32316e-05
-3.6121e-05
-2.9592e-05
-2.36537e-05
-1.81033e-05
-1.30276e-05
-8.07086e-06
-3.15575e-06
-0.43458
-0.46267
-0.47923
-0.485543
-0.485306
-0.481243
-0.473968
-0.462955
-0.447613
-0.42787
-0.404228
-0.377533
-0.348736
-0.318749
-0.288417
-0.2585
-0.229654
-0.202395
-0.177091
-0.153968
-0.133128
-0.11457
-0.0982181
-0.0839399
-0.0715664
-0.0609131
-0.0517929
-0.0440224
-0.0374269
-0.0318435
-0.027124
-0.023136
-0.0197638
-0.0169082
-0.0144854
-0.0124259
-0.0106716
-0.00917482
-0.00789564
-0.00680084
-0.00586257
-0.00505739
-0.0043655
-0.00377021
-0.00325739
-0.00281515
-0.00243346
-0.00210387
-0.00181919
-0.00157335
-0.00136108
-0.00117785
-0.00101971
-0.0008832
-0.00076533
-0.000663514
-0.000575532
-0.000499488
-0.000433757
-0.000376938
-0.000327824
-0.00028536
-0.000248606
-0.000216746
-0.000189046
-0.000164879
-0.000143688
-0.000125023
-0.000108479
-9.37611e-05
-8.05749e-05
-6.87503e-05
-5.80524e-05
-4.84063e-05
-3.95725e-05
-3.15676e-05
-2.40753e-05
-1.72415e-05
-1.05427e-05
-4.05468e-06
-0.41709
-0.441611
-0.456565
-0.462605
-0.462631
-0.458853
-0.451938
-0.441584
-0.427372
-0.409264
-0.387675
-0.363318
-0.337009
-0.309555
-0.281702
-0.25412
-0.227386
-0.201961
-0.178188
-0.156291
-0.136386
-0.118502
-0.102594
-0.0885655
-0.0762842
-0.0655995
-0.0563534
-0.048388
-0.0415498
-0.0356936
-0.030685
-0.0264029
-0.0227402
-0.0196039
-0.0169147
-0.0146056
-0.0126203
-0.0109114
-0.00943912
-0.00816951
-0.00707381
-0.00612745
-0.00530944
-0.0046018
-0.00398921
-0.00345856
-0.00299869
-0.00260008
-0.00225456
-0.00195511
-0.00169564
-0.00147087
-0.00127617
-0.0011075
-0.000961364
-0.000834728
-0.000724979
-0.000629869
-0.00054746
-0.000476065
-0.000414213
-0.000360616
-0.000314123
-0.000273733
-0.000238553
-0.00020782
-0.000180855
-0.000157111
-0.000136089
-0.000117425
-0.000100746
-8.58356e-05
-7.23818e-05
-6.0287e-05
-4.92257e-05
-3.92241e-05
-2.98539e-05
-2.13208e-05
-1.29352e-05
-4.92728e-06
-0.401242
-0.422867
-0.436516
-0.442395
-0.442731
-0.439319
-0.432814
-0.423089
-0.409873
-0.393164
-0.373319
-0.350945
-0.326757
-0.301468
-0.275738
-0.250161
-0.225246
-0.201414
-0.178985
-0.158179
-0.139122
-0.121861
-0.106376
-0.0926003
-0.0804311
-0.0697463
-0.0604135
-0.0522963
-0.0452601
-0.0391751
-0.03392
-0.0293836
-0.0254668
-0.0220828
-0.0191565
-0.0166238
-0.0144302
-0.012529
-0.0108805
-0.00945066
-0.00820999
-0.0071331
-0.00619804
-0.00538582
-0.00468006
-0.00406667
-0.00353347
-0.00307
-0.00266719
-0.00231719
-0.00201316
-0.0017491
-0.00151978
-0.00132065
-0.00114772
-0.000997545
-0.000867154
-0.000753962
-0.000655729
-0.000570498
-0.000496547
-0.000432366
-0.00037661
-0.000328102
-0.000285797
-0.000248807
-0.000216337
-0.000187749
-0.000162455
-0.000140027
-0.000120016
-0.000102161
-8.60767e-05
-7.16441e-05
-5.84552e-05
-4.65465e-05
-3.53813e-05
-2.52242e-05
-1.52246e-05
-5.76347e-06
-0.387076
-0.406457
-0.419021
-0.424758
-0.425371
-0.422336
-0.416258
-0.407124
-0.394781
-0.379266
-0.360899
-0.340213
-0.317834
-0.29439
-0.270471
-0.246604
-0.223253
-0.200801
-0.179548
-0.159708
-0.141411
-0.124717
-0.109628
-0.0960994
-0.0840533
-0.0733914
-0.0640025
-0.0557692
-0.048573
-0.0422978
-0.0368337
-0.032079
-0.0279417
-0.0243408
-0.0212053
-0.0184739
-0.0160939
-0.0140197
-0.012212
-0.0106367
-0.00926383
-0.00806749
-0.00702494
-0.0061164
-0.00532464
-0.00463466
-0.00403347
-0.00350975
-0.00305363
-0.00265652
-0.00231088
-0.0020101
-0.00174841
-0.00152075
-0.00132273
-0.00115051
-0.00100077
-0.000870634
-0.000757565
-0.000659355
-0.00057405
-0.000499932
-0.00043547
-0.000379328
-0.00033032
-0.000287438
-0.000249785
-0.000216635
-0.000187318
-0.000161344
-0.000138193
-0.000117564
-9.90005e-05
-8.23645e-05
-6.71695e-05
-5.34619e-05
-4.06025e-05
-2.89124e-05
-1.73882e-05
-6.5539e-06
-0.374842
-0.392295
-0.40388
-0.409461
-0.410319
-0.40765
-0.401991
-0.393401
-0.381818
-0.367322
-0.350212
-0.330958
-0.310112
-0.288233
-0.265848
-0.243439
-0.221426
-0.200164
-0.179933
-0.160939
-0.143315
-0.127132
-0.112406
-0.0991127
-0.0871937
-0.0765702
-0.0671488
-0.0588283
-0.0515039
-0.0450719
-0.0394321
-0.0344913
-0.0301643
-0.026375
-0.0230564
-0.0201501
-0.0176051
-0.015377
-0.013427
-0.011721
-0.010229
-0.00892454
-0.00778448
-0.00678832
-0.00591813
-0.0051582
-0.00449476
-0.00391578
-0.0034107
-0.00297025
-0.00258628
-0.00225164
-0.00196007
-0.00170607
-0.00148486
-0.00129226
-0.00112464
-0.000978829
-0.000852037
-0.000741816
-0.000645999
-0.000562675
-0.000490142
-0.000426919
-0.00037169
-0.00032334
-0.000280873
-0.000243487
-0.000210433
-0.000181166
-0.000155099
-0.000131892
-0.000111025
-9.23417e-05
-7.52819e-05
-5.99016e-05
-4.54655e-05
-3.23484e-05
-1.94045e-05
-7.29054e-06
-0.364471
-0.380159
-0.390851
-0.396285
-0.397376
-0.395054
-0.389787
-0.381685
-0.370762
-0.357134
-0.341087
-0.323039
-0.303483
-0.28292
-0.261831
-0.240655
-0.21978
-0.199534
-0.180182
-0.161922
-0.144887
-0.129157
-0.11476
-0.101685
-0.0898911
-0.079315
-0.0698784
-0.0614936
-0.0540677
-0.0475074
-0.0417214
-0.0366236
-0.0321348
-0.0281837
-0.0247069
-0.0216483
-0.0189589
-0.0165954
-0.0145197
-0.0126978
-0.0110998
-0.00969896
-0.00847166
-0.00739694
-0.00645628
-0.00563335
-0.00491378
-0.00428489
-0.00373551
-0.00325579
-0.00283705
-0.00247167
-0.00215294
-0.00187499
-0.00163269
-0.00142154
-0.00123765
-0.00107757
-0.000938287
-0.000817126
-0.000711726
-0.000620006
-0.000540108
-0.00047042
-0.000409509
-0.000356164
-0.000309299
-0.000268043
-0.000231575
-0.0001993
-0.000170567
-0.000145005
-0.000122033
-0.000101477
-8.27121e-05
-6.58016e-05
-4.99222e-05
-3.54979e-05
-2.12536e-05
-7.96594e-06
-0.355695
-0.369833
-0.379754
-0.385074
-0.386384
-0.384379
-0.379463
-0.37179
-0.361433
-0.348538
-0.333379
-0.316337
-0.297855
-0.27839
-0.258384
-0.238242
-0.218324
-0.198938
-0.180332
-0.162699
-0.146174
-0.130839
-0.116732
-0.103855
-0.0921792
-0.0816544
-0.0722146
-0.0637834
-0.0562782
-0.0496142
-0.0437078
-0.0384792
-0.0338544
-0.0297661
-0.0261541
-0.0229649
-0.020151
-0.0176703
-0.0154852
-0.0135623
-0.0118716
-0.0103861
-0.00908212
-0.00793816
-0.00693528
-0.00605666
-0.00528737
-0.0046142
-0.00402546
-0.00351081
-0.00306111
-0.00266833
-0.00232538
-0.00202606
-0.00176493
-0.00153724
-0.00133881
-0.00116599
-0.00101554
-0.000884593
-0.000770622
-0.000671387
-0.000584895
-0.000509417
-0.000443416
-0.000385595
-0.000334789
-0.000290064
-0.000250537
-0.000215566
-0.000184446
-0.000156773
-0.000131914
-0.000109681
-8.93867e-05
-7.11033e-05
-5.39287e-05
-3.83301e-05
-2.29172e-05
-8.57344e-06
-0.348319
-0.361176
-0.370468
-0.375707
-0.377211
-0.375481
-0.37087
-0.363563
-0.353683
-0.341397
-0.32697
-0.310754
-0.293155
-0.274594
-0.255481
-0.236193
-0.217067
-0.198394
-0.180412
-0.163307
-0.147212
-0.132214
-0.118359
-0.105656
-0.0940872
-0.0836133
-0.0741781
-0.0657144
-0.058148
-0.0514015
-0.0453975
-0.0400616
-0.0353243
-0.0311217
-0.0273966
-0.0240973
-0.0211781
-0.0185979
-0.0163197
-0.0143104
-0.0125402
-0.0109821
-0.00961211
-0.00840847
-0.00735188
-0.00642508
-0.00561274
-0.00490117
-0.00427826
-0.00373325
-0.00325662
-0.00283998
-0.00247594
-0.00215799
-0.00188045
-0.00163833
-0.00142723
-0.00124329
-0.00108309
-0.000943604
-0.000822145
-0.000716342
-0.000624084
-0.00054354
-0.000473085
-0.000411348
-0.000357096
-0.000309338
-0.000267135
-0.000229806
-0.000196599
-0.000167081
-0.000140573
-0.000116872
-9.52397e-05
-7.57543e-05
-5.74456e-05
-4.08173e-05
-2.4379e-05
-9.10707e-06
-0.342261
-0.354104
-0.362898
-0.368077
-0.369741
-0.36824
-0.363883
-0.356881
-0.347391
-0.335599
-0.321764
-0.306213
-0.289324
-0.271491
-0.253096
-0.234497
-0.216013
-0.19792
-0.180446
-0.163773
-0.148033
-0.133315
-0.11967
-0.107115
-0.0956399
-0.085213
-0.0757866
-0.0673009
-0.0596883
-0.0528775
-0.0467961
-0.0413743
-0.0365461
-0.0322507
-0.028433
-0.0250436
-0.0220376
-0.0193751
-0.0170198
-0.0149387
-0.0131023
-0.0114837
-0.0100585
-0.00880489
-0.00770327
-0.00673605
-0.00588751
-0.00514364
-0.00449195
-0.00392134
-0.00342199
-0.00298521
-0.00260334
-0.00226967
-0.00197826
-0.00172394
-0.00150212
-0.00130878
-0.00114034
-0.000993624
-0.000865823
-0.000754453
-0.000657307
-0.000572468
-0.000498237
-0.00043318
-0.000376006
-0.000325677
-0.000281208
-0.000241883
-0.000206908
-0.000175829
-0.000147923
-0.00012298
-0.000100214
-7.9709e-05
-6.04382e-05
-4.29347e-05
-2.56245e-05
-9.56166e-06
-0.337483
-0.348547
-0.356956
-0.362089
-0.363879
-0.362558
-0.358404
-0.351644
-0.342463
-0.331059
-0.317684
-0.30265
-0.286314
-0.269046
-0.251211
-0.233149
-0.215166
-0.197526
-0.180453
-0.16412
-0.148661
-0.134167
-0.120691
-0.108256
-0.0968578
-0.0864715
-0.0770553
-0.0685552
-0.0609088
-0.0540493
-0.0479087
-0.0424204
-0.0375213
-0.0331532
-0.0292628
-0.0258021
-0.0227274
-0.0199996
-0.0175828
-0.0154445
-0.0135552
-0.0118881
-0.0104186
-0.00912495
-0.00798714
-0.00698739
-0.00610971
-0.00533979
-0.00466488
-0.0040736
-0.00355588
-0.00310282
-0.00270655
-0.00236014
-0.00205752
-0.00179333
-0.00156285
-0.00136189
-0.00118677
-0.0010342
-0.000901252
-0.000785365
-0.000684251
-0.000595927
-0.000518632
-0.000450882
-0.000391338
-0.000338925
-0.00029262
-0.000251679
-0.000215274
-0.000182931
-0.000153895
-0.000127944
-0.000104261
-8.29291e-05
-6.28772e-05
-4.46616e-05
-2.66417e-05
-9.93259e-06
-0.333935
-0.344433
-0.352568
-0.35767
-0.359551
-0.358363
-0.354359
-0.347779
-0.338827
-0.327709
-0.314673
-0.300019
-0.284087
-0.267234
-0.24981
-0.232143
-0.214528
-0.197224
-0.180446
-0.164366
-0.149116
-0.134789
-0.12144
-0.109096
-0.0977571
-0.087403
-0.0779963
-0.0694872
-0.0618172
-0.054923
-0.0487394
-0.0432025
-0.0382515
-0.0338297
-0.0298855
-0.0263718
-0.0232461
-0.0204695
-0.0180068
-0.0158257
-0.0138968
-0.0121932
-0.0106906
-0.00936671
-0.00820167
-0.00717742
-0.00627776
-0.00548818
-0.00479572
-0.00418882
-0.00365723
-0.00319186
-0.00278469
-0.00242867
-0.00211757
-0.00184592
-0.00160888
-0.00140216
-0.00122198
-0.00106496
-0.00092811
-0.000808794
-0.000704666
-0.000613695
-0.000534074
-0.000464281
-0.000402941
-0.000348952
-0.000301261
-0.0002591
-0.000221616
-0.000188318
-0.00015843
-0.00013172
-0.000107343
-8.53844e-05
-6.47402e-05
-4.59831e-05
-2.74236e-05
-1.0217e-05
-0.331539
-0.341687
-0.349657
-0.354752
-0.356696
-0.355598
-0.351694
-0.345232
-0.33643
-0.3255
-0.312688
-0.298283
-0.282617
-0.266036
-0.248882
-0.231474
-0.214102
-0.197019
-0.180435
-0.164523
-0.149412
-0.135195
-0.121931
-0.109648
-0.09835
-0.0880182
-0.0786187
-0.0701045
-0.0624197
-0.0555031
-0.0492916
-0.043723
-0.0387377
-0.0342806
-0.0303008
-0.0267521
-0.0235925
-0.0207836
-0.0182904
-0.0160808
-0.0141254
-0.0123976
-0.0108728
-0.00952879
-0.00834554
-0.00730488
-0.0063905
-0.00558776
-0.00488353
-0.00426616
-0.00372525
-0.00325162
-0.00283715
-0.00247469
-0.00215791
-0.00188126
-0.00163982
-0.00142924
-0.00124565
-0.00108564
-0.000946166
-0.000824536
-0.000718374
-0.000625616
-0.000544427
-0.000473257
-0.00041071
-0.000355664
-0.000307045
-0.00026407
-0.000225868
-0.000191936
-0.000161481
-0.000134265
-0.000109427
-8.70485e-05
-6.60097e-05
-4.68849e-05
-2.79662e-05
-1.04127e-05
-0.330262
-0.340268
-0.348173
-0.353271
-0.355267
-0.354221
-0.350369
-0.343967
-0.33524
-0.324404
-0.311702
-0.297422
-0.281888
-0.265441
-0.24842
-0.231141
-0.213889
-0.196915
-0.180428
-0.164599
-0.149557
-0.135396
-0.122174
-0.109922
-0.0986437
-0.0883233
-0.0789277
-0.0704113
-0.0627194
-0.0557918
-0.0495666
-0.0439823
-0.0389802
-0.0345055
-0.0305081
-0.0269421
-0.0237656
-0.0209406
-0.0184321
-0.0162083
-0.0142398
-0.0124999
-0.010964
-0.00960994
-0.00841758
-0.00736873
-0.00644699
-0.00563764
-0.00492752
-0.00430489
-0.00375932
-0.00328155
-0.00286343
-0.00249774
-0.00217813
-0.00189898
-0.00165534
-0.00144283
-0.00125754
-0.00109603
-0.000955227
-0.000832432
-0.000725245
-0.000631584
-0.000549602
-0.000477738
-0.000414586
-0.00035901
-0.000309929
-0.000266547
-0.000227991
-0.000193743
-0.000163012
-0.000135542
-0.000110481
-8.78869e-05
-6.6662e-05
-4.73384e-05
-2.8258e-05
-1.05024e-05
-0.314026
-0.344564
-0.374014
-0.402342
-0.429782
-0.456649
-0.484615
-0.514383
-0.548192
-0.591398
-0.29965
-0.329898
-0.359571
-0.388708
-0.41768
-0.446679
-0.475182
-0.504346
-0.528995
-0.560193
-0.286803
-0.316229
-0.34476
-0.373032
-0.399987
-0.426746
-0.449112
-0.471195
-0.488114
-0.516469
-0.274826
-0.303151
-0.329713
-0.355999
-0.379013
-0.401466
-0.418502
-0.437701
-0.457993