/*--------------------------------*- C++ -*----------------------------------*\
| =========                 |                                                 |
| \\      /  F ield         | OpenFOAM: The Open Source CFD Toolbox           |
|  \\    /   O peration     | Version:  4.1                                   |
|   \\  /    A nd           | Web:      www.OpenFOAM.org                      |
|    \\/     M anipulation  |                                                 |
\*---------------------------------------------------------------------------*/
FoamFile
{
    version     2.0;
    format      ascii;
    class       volScalarField;
    location    "5";
    object      p;
}
// * * * * * * * * * * * * * * * * * * * * * * * * * * * * * * * * * * * * * //

dimensions      [0 2 -2 0 0 0 0];

internalField   nonuniform List<scalar> 
2000
(
-0.232597
-0.219385
-0.207284
-0.196091
-0.185648
-0.17597
-0.166945
-0.158529
-0.151872
-0.154371
-0.254888
-0.237886
-0.223116
-0.209778
-0.197337
-0.1857
-0.174679
-0.164203
-0.154958
-0.150111
-0.280127
-0.25899
-0.241411
-0.225701
-0.210773
-0.196388
-0.182315
-0.168451
-0.155065
-0.143149
-0.308042
-0.282551
-0.262011
-0.243518
-0.225315
-0.207103
-0.188759
-0.170307
-0.152003
-0.134204
-0.337932
-0.308045
-0.284316
-0.262354
-0.239783
-0.216506
-0.192812
-0.169116
-0.145972
-0.123676
-0.368613
-0.334471
-0.307183
-0.280758
-0.252502
-0.222941
-0.193074
-0.163833
-0.136043
-0.10994
-0.398377
-0.360293
-0.328884
-0.296744
-0.26146
-0.224657
-0.188224
-0.153555
-0.121565
-0.0922976
-0.42502
-0.383433
-0.347156
-0.307959
-0.264543
-0.220014
-0.177119
-0.137488
-0.101859
-0.0699649
-0.445936
-0.40136
-0.359369
-0.31194
-0.259793
-0.207663
-0.158908
-0.115089
-0.0765278
-0.0426629
-0.458289
-0.411268
-0.362783
-0.306398
-0.245602
-0.186615
-0.133023
-0.0860049
-0.0453123
-0.010221
-0.123447
-0.129831
-0.132731
-0.134078
-0.134873
-0.135301
-0.135471
-0.135482
-0.135446
-0.135599
-0.126102
-0.13204
-0.134608
-0.135743
-0.136358
-0.136614
-0.13662
-0.136453
-0.136192
-0.136354
-0.131294
-0.136236
-0.138194
-0.138882
-0.139088
-0.138953
-0.138586
-0.138027
-0.137295
-0.137393
-0.138536
-0.142088
-0.143145
-0.143115
-0.142644
-0.141852
-0.140847
-0.139634
-0.138137
-0.13789
-0.14739
-0.149276
-0.149144
-0.148106
-0.146669
-0.144932
-0.142994
-0.140823
-0.138257
-0.13757
-0.157559
-0.157577
-0.155992
-0.153671
-0.151006
-0.148071
-0.144943
-0.141535
-0.137516
-0.135881
-0.168972
-0.166938
-0.163663
-0.159833
-0.155748
-0.151459
-0.146994
-0.142184
-0.136379
-0.133057
-0.181808
-0.177486
-0.172309
-0.166799
-0.161183
-0.15548
-0.149634
-0.143352
-0.13551
-0.12956
-0.196403
-0.189507
-0.182217
-0.174903
-0.167709
-0.160614
-0.153432
-0.145634
-0.135541
-0.126262
-0.213196
-0.203354
-0.193753
-0.184549
-0.175777
-0.167421
-0.159244
-0.150584
-0.139818
-0.130492
-0.136127
-0.136186
-0.135968
-0.135503
-0.134677
-0.133359
-0.131414
-0.128696
-0.125052
-0.120323
-0.114331
-0.106911
-0.0981301
-0.0877846
-0.0758897
-0.0625909
-0.0479428
-0.0313767
-0.0130051
-0.000210515
-0.137892
-0.138058
-0.137848
-0.137494
-0.136824
-0.135679
-0.133918
-0.131391
-0.127938
-0.123394
-0.117578
-0.110315
-0.101629
-0.0913358
-0.0794134
-0.0659676
-0.0510731
-0.0342809
-0.0155372
-0.00124078
-0.140778
-0.141157
-0.140931
-0.140755
-0.140358
-0.139517
-0.138083
-0.135898
-0.132788
-0.128574
-0.123062
-0.116055
-0.107586
-0.0974118
-0.0854699
-0.0717979
-0.0564608
-0.0391934
-0.0198519
-0.00318717
-0.143967
-0.144536
-0.14421
-0.144203
-0.144119
-0.143638
-0.142595
-0.140825
-0.138144
-0.13435
-0.129248
-0.122669
-0.114396
-0.104358
-0.0924213
-0.0785309
-0.0627124
-0.0448749
-0.0247649
-0.00481756
-0.146277
-0.147519
-0.146934
-0.146943
-0.147123
-0.146975
-0.146295
-0.144926
-0.14267
-0.1393
-0.134601
-0.128475
-0.120442
-0.110573
-0.0986859
-0.0846636
-0.0684759
-0.050061
-0.0292851
-0.00800888
-0.14797
-0.149908
-0.148719
-0.148511
-0.148842
-0.148919
-0.148495
-0.147435
-0.14552
-0.142469
-0.13801
-0.132295
-0.124613
-0.114954
-0.10316
-0.0890925
-0.0726865
-0.0539054
-0.032675
-0.00992884
-0.149384
-0.151909
-0.149585
-0.148875
-0.149196
-0.149319
-0.148976
-0.148071
-0.146399
-0.143635
-0.139803
-0.134031
-0.126532
-0.117054
-0.105371
-0.0913377
-0.0748742
-0.0559619
-0.0345922
-0.0111002
-0.150682
-0.153425
-0.149468
-0.148121
-0.148261
-0.148196
-0.147728
-0.146753
-0.145331
-0.142877
-0.138923
-0.133425
-0.126161
-0.116865
-0.105339
-0.0914466
-0.0751054
-0.0563163
-0.0351399
-0.0117105
-0.151541
-0.153352
-0.147856
-0.146164
-0.145864
-0.145359
-0.14475
-0.143923
-0.142217
-0.139655
-0.135885
-0.130613
-0.123564
-0.114509
-0.103257
-0.0896781
-0.0736928
-0.0553312
-0.0346624
-0.0119344
-0.152643
-0.149466
-0.144487
-0.143045
-0.14185
-0.140633
-0.139674
-0.138584
-0.136889
-0.134349
-0.13066
-0.125528
-0.118694
-0.109939
-0.099081
-0.0860092
-0.0706488
-0.0530897
-0.0333087
-0.0118558
-0.127497
-0.129339
-0.135988
-0.137803
-0.137087
-0.13617
-0.135339
-0.13417
-0.132322
-0.129567
-0.125662
-0.12036
-0.11343
-0.104689
-0.093989
-0.0812743
-0.0664867
-0.0498273
-0.0311415
-0.0114446
-0.126191
-0.125045
-0.12968
-0.130874
-0.129988
-0.128974
-0.127982
-0.12659
-0.12449
-0.121483
-0.117375
-0.111964
-0.105062
-0.0965292
-0.0862539
-0.0742354
-0.0604144
-0.0451043
-0.0279848
-0.0105765
-0.119561
-0.118472
-0.120422
-0.120985
-0.120388
-0.119548
-0.118525
-0.117028
-0.114812
-0.111712
-0.10757
-0.102228
-0.0955414
-0.0874172
-0.0777724
-0.0666564
-0.0539987
-0.0402172
-0.0248151
-0.00970976
-0.108456
-0.1092
-0.109469
-0.109461
-0.109204
-0.1087
-0.107804
-0.106351
-0.104182
-0.101164
-0.0971654
-0.0920677
-0.0857635
-0.0781992
-0.0693152
-0.059203
-0.0477755
-0.0355338
-0.0218239
-0.00883825
-0.0945481
-0.0974976
-0.0972707
-0.0969804
-0.0970476
-0.096941
-0.0963234
-0.0950558
-0.0930702
-0.0902731
-0.0865588
-0.0818389
-0.076038
-0.0691357
-0.0610913
-0.052028
-0.0418434
-0.0310927
-0.0190109
-0.0079422
-0.0787535
-0.0838602
-0.0841047
-0.0839911
-0.0844653
-0.0848313
-0.0845931
-0.0836329
-0.0819452
-0.0794784
-0.0761524
-0.0719055
-0.0666879
-0.0605061
-0.0533347
-0.0453183
-0.0363443
-0.0269926
-0.0164387
-0.00706148
-0.0624374
-0.0693169
-0.0705525
-0.0710017
-0.0719854
-0.0728573
-0.073065
-0.0725068
-0.0712038
-0.0691441
-0.0662754
-0.0625586
-0.0579655
-0.0525229
-0.0462182
-0.0392078
-0.0313757
-0.0233008
-0.0141443
-0.00622754
-0.0467568
-0.0548261
-0.0571985
-0.0584372
-0.0600061
-0.061397
-0.0620873
-0.0619768
-0.0611112
-0.0595048
-0.05713
-0.0539682
-0.0500086
-0.045293
-0.0398194
-0.0337485
-0.0269672
-0.0200345
-0.0121306
-0.00545989
-0.0322804
-0.0410233
-0.0444782
-0.04659
-0.0487784
-0.0506844
-0.0518612
-0.0522202
-0.0518171
-0.0506841
-0.0488144
-0.0462075
-0.042867
-0.0388449
-0.0341484
-0.0289373
-0.0231052
-0.0171805
-0.0103834
-0.00477013
-0.0192061
-0.028278
-0.0326784
-0.0356455
-0.0384475
-0.0408513
-0.0425015
-0.0433282
-0.0433895
-0.042729
-0.0413566
-0.0392864
-0.0365341
-0.0331588
-0.0291752
-0.0247389
-0.0197528
-0.0147095
-0.00887962
-0.00416242
-0.00757998
-0.0167748
-0.0219611
-0.0257077
-0.0290872
-0.0319597
-0.0340581
-0.0353338
-0.0358443
-0.0356394
-0.0347419
-0.0331778
-0.0309724
-0.0281893
-0.0248498
-0.0211032
-0.0168629
-0.0125848
-0.00759299
-0.0036352
0.0026264
-0.00657324
-0.0123961
-0.0168233
-0.0207257
-0.0240288
-0.0265415
-0.0282358
-0.0291676
-0.02939
-0.028935
-0.0278377
-0.0261311
-0.0238818
-0.0211162
-0.017977
-0.0143874
-0.0107695
-0.00649793
-0.00318344
0.0114802
0.00233671
-0.00399669
-0.00900226
-0.0133645
-0.0170536
-0.0199407
-0.0220156
-0.0233324
-0.0239454
-0.0238932
-0.0232179
-0.021958
-0.0201822
-0.0179208
-0.0153103
-0.0122825
-0.00922944
-0.00557174
-0.0028006
0.0190573
0.00999505
0.00325372
-0.00223416
-0.00699077
-0.0110174
-0.014235
-0.0166476
-0.0183075
-0.0192688
-0.0195748
-0.0192725
-0.018405
-0.017042
-0.0152166
-0.0130596
-0.0105106
-0.00793574
-0.00479544
-0.00247994
0.0254277
0.0164509
0.00938518
0.00350231
-0.00158433
-0.00589871
-0.00940055
-0.012105
-0.0140623
-0.0153258
-0.015942
-0.0159616
-0.0154308
-0.0144198
-0.012964
-0.011189
-0.00904092
-0.00686457
-0.00415376
-0.00221536
0.0306512
0.0217531
0.0144324
0.00823297
0.00287761
-0.00167464
-0.00541349
-0.00836226
-0.010569
-0.0120862
-0.0129627
-0.0132514
-0.0130011
-0.0122819
-0.0111309
-0.00966942
-0.00784906
-0.00599712
-0.00363481
-0.00200171
0.0347761
0.0259441
0.018428
0.0119831
0.00641711
0.00167608
-0.00225221
-0.00539678
-0.00780373
-0.00952483
-0.0106103
-0.0111148
-0.0110885
-0.0106015
-0.00969224
-0.00847854
-0.00691618
-0.00531875
-0.00322945
-0.00183506
0.037844
0.0290598
0.0214
0.0147751
0.00905377
0.00417228
0.000102214
-0.00318927
-0.00574672
-0.00762115
-0.00886365
-0.0095301
-0.00967161
-0.00935817
-0.0086289
-0.00759911
-0.00622795
-0.00481851
-0.00293067
-0.00171205
0.0399031
0.0311387
0.0233763
0.0166297
0.0108052
0.00583039
0.00166569
-0.00172404
-0.0043821
-0.00635898
-0.00770645
-0.008481
-0.00873431
-0.00853617
-0.00792653
-0.00701843
-0.00577411
-0.00448785
-0.00273425
-0.00162633
0.0409595
0.0321924
0.0243664
0.0175534
0.0116757
0.00665393
0.00244186
-0.000996971
-0.00370531
-0.00573337
-0.00713313
-0.00796135
-0.00827039
-0.00812914
-0.00757945
-0.00673023
-0.00555189
-0.00431987
-0.00264673
-0.00156041
0.0191572
-0.0129339
-0.0405887
-0.0638149
-0.0825461
-0.0974322
-0.10866
-0.119328
-0.128206
-0.153549
0.0441859
0.0131239
-0.0141842
-0.0378572
-0.057762
-0.0750523
-0.0894157
-0.105909
-0.118014
-0.146979
0.0658038
0.0360024
0.00927254
-0.0147187
-0.0357541
-0.0554912
-0.0723584
-0.0920012
-0.103104
-0.128956
0.0845307
0.0558508
0.0297207
0.00567041
-0.0158182
-0.0365594
-0.0536792
-0.0732503
-0.0836695
-0.107433
0.100734
0.0730547
0.0475838
0.0238293
0.00256726
-0.0180258
-0.0346781
-0.053704
-0.0652636
-0.0868439
0.114789
0.0880571
0.0633106
0.0400922
0.0192995
-0.000848878
-0.017413
-0.0359356
-0.0486894
-0.0673327
0.127034
0.101199
0.0771819
0.0545744
0.0342158
0.0145318
-0.00210426
-0.0197536
-0.0330722
-0.0490844
0.137722
0.112717
0.0893899
0.0673928
0.0474258
0.0282843
0.0117163
-0.00488979
-0.0184734
-0.0326999
0.147035
0.122799
0.100112
0.0787118
0.0591421
0.0405965
0.0242063
0.00846992
-0.00523432
-0.0183262
0.155127
0.131605
0.10951
0.0886831
0.0695163
0.0515316
0.035354
0.0202535
0.00660437
-0.00574768
0.162139
0.139269
0.117721
0.0974262
0.0786498
0.0611501
0.0452112
0.030586
0.0171318
0.00525928
0.168187
0.145905
0.124857
0.105042
0.0866348
0.0695484
0.0538709
0.0396114
0.0264085
0.0148453
0.173362
0.151606
0.13101
0.111622
0.0935591
0.0768251
0.0614112
0.0474334
0.0344814
0.0231267
0.177742
0.156451
0.13626
0.117247
0.0994984
0.0830629
0.0678941
0.0541346
0.0414083
0.0302014
0.181389
0.160504
0.140671
0.121986
0.104516
0.0883305
0.073377
0.0597873
0.0472508
0.0361476
0.184356
0.163821
0.144299
0.125893
0.108664
0.0926851
0.0779117
0.0644517
0.0520637
0.0410268
0.186683
0.166445
0.147188
0.129016
0.111989
0.0961745
0.0815429
0.0681756
0.0558922
0.044887
0.188402
0.168413
0.14938
0.131401
0.114536
0.0988482
0.0843189
0.0710078
0.0587823
0.0477727
0.189518
0.169737
0.150891
0.133071
0.116337
0.100744
0.0862833
0.0729984
0.0607887
0.0497389
0.190026
0.170364
0.151629
0.133908
0.117256
0.101725
0.0873106
0.0740448
0.0618446
0.0507575
0.527098
0.528201
0.519628
0.503686
0.480124
0.446736
0.400586
0.341677
0.283111
0.256953
0.468117
0.462495
0.444741
0.420476
0.38872
0.346122
0.289777
0.220762
0.153386
0.120121
0.408531
0.395498
0.37046
0.339131
0.2997
0.248521
0.18317
0.105762
0.0315549
-0.00747566
0.34612
0.327342
0.297147
0.260137
0.214064
0.155548
0.0830758
-0.00153077
-0.0783968
-0.122394
0.284494
0.260849
0.226479
0.184755
0.133204
0.0687695
-0.00937379
-0.0962972
-0.174581
-0.222261
0.225579
0.197617
0.159847
0.114383
0.0586862
-0.00975741
-0.0908028
-0.178106
-0.255378
-0.305244
0.170017
0.138342
0.0982025
0.0501105
-0.00828726
-0.0787512
-0.160203
-0.245401
-0.319378
-0.370235
0.11738
0.0838905
0.0423148
-0.00728942
-0.0668407
-0.137319
-0.216711
-0.297226
-0.366072
-0.416996
0.069744
0.0349244
-0.00725498
-0.0571896
-0.116302
-0.184778
-0.259782
-0.333478
-0.395941
-0.446179
0.0272661
-0.0081595
-0.0500736
-0.0991503
-0.156252
-0.220818
-0.289451
-0.354849
-0.410321
-0.459236
0.966688
0.995166
1.02662
1.06078
1.09733
1.13559
1.17393
1.20927
1.2429
1.28875
0.957733
0.984928
1.01535
1.04835
1.08348
1.12001
1.15631
1.18922
1.22009
1.26448
0.939942
0.96459
0.992947
1.02366
1.05594
1.08903
1.12117
1.14925
1.1751
1.21565
0.913724
0.934701
0.960056
0.9874
1.01553
1.04357
1.06966
1.09074
1.10941
1.14426
0.879592
0.895918
0.917424
0.940422
0.963203
0.984759
1.00308
1.01522
1.02481
1.05247
0.838162
0.849041
0.865981
0.883777
0.900162
0.913992
0.923097
0.924698
0.923708
0.943028
0.790115
0.794968
0.806813
0.818726
0.827866
0.832968
0.831716
0.821599
0.808995
0.819179
0.73595
0.734453
0.741016
0.746633
0.747922
0.743589
0.731216
0.708668
0.683947
0.684609
0.676068
0.668475
0.670045
0.66907
0.662069
0.647911
0.624068
0.588897
0.552118
0.543287
0.607516
0.598036
0.595733
0.587781
0.57227
0.548239
0.512969
0.465485
0.417251
0.399351
0.754831
0.75531
0.756538
0.758625
0.761563
0.765348
0.770013
0.775605
0.78216
0.789737
0.798408
0.80825
0.819352
0.83181
0.845732
0.861233
0.878435
0.897459
0.918426
0.941417
0.753194
0.753664
0.75487
0.756916
0.759796
0.763508
0.76809
0.773565
0.779978
0.787389
0.795861
0.805466
0.816282
0.828399
0.84191
0.856919
0.873526
0.891834
0.911936
0.933852
0.749952
0.75041
0.751576
0.753542
0.756306
0.759866
0.764285
0.769538
0.775681
0.782767
0.790849
0.799985
0.81024
0.821682
0.834384
0.848416
0.863845
0.880725
0.899094
0.918852
0.745207
0.745651
0.746762
0.748618
0.75123
0.754605
0.75873
0.763649
0.769398
0.776008
0.783517
0.791963
0.801388
0.811834
0.823335
0.83592
0.849598
0.864355
0.880145
0.896689
0.739092
0.73952
0.740563
0.742276
0.744675
0.747793
0.751575
0.756076
0.761316
0.767311
0.774074
0.781622
0.789967
0.799111
0.809043
0.819731
0.831111
0.843072
0.855458
0.867761
0.73177
0.732182
0.733153
0.734707
0.736882
0.73965
0.743031
0.747036
0.751665
0.756916
0.762779
0.769241
0.776276
0.783837
0.791854
0.800221
0.808779
0.817299
0.825483
0.832544
0.723429
0.723827
0.724718
0.726093
0.727989
0.730397
0.733324
0.73676
0.740688
0.745082
0.749908
0.755117
0.760635
0.76636
0.772151
0.777807
0.783055
0.787517
0.790723
0.791568
0.714274
0.714661
0.715474
0.716664
0.718261
0.720282
0.722711
0.725519
0.728668
0.732111
0.73578
0.739583
0.743396
0.74705
0.750322
0.752905
0.754393
0.754223
0.751708
0.745307
0.704512
0.70489
0.70563
0.706635
0.707944
0.70957
0.711483
0.713638
0.715975
0.718417
0.720858
0.723156
0.725124
0.726513
0.726994
0.726133
0.723369
0.717925
0.708943
0.694138
0.694358
0.694692
0.695314
0.696109
0.697099
0.698282
0.699624
0.701062
0.702518
0.703887
0.705026
0.705747
0.705794
0.704831
0.702407
0.697909
0.690543
0.679072
0.662431
0.635729
0.684454
0.684599
0.684876
0.685242
0.685678
0.686157
0.686625
0.687003
0.68719
0.687048
0.686402
0.685016
0.682585
0.678704
0.672844
0.664271
0.652055
0.634479
0.609725
0.569526
0.674791
0.67482
0.674869
0.674908
0.674902
0.674808
0.674564
0.674086
0.673259
0.671937
0.669933
0.667001
0.662828
0.657008
0.649019
0.638153
0.623564
0.603854
0.578209
0.544398
0.665083
0.665031
0.664895
0.664639
0.664228
0.663615
0.662733
0.661495
0.659786
0.657461
0.654334
0.650173
0.644685
0.637502
0.628175
0.616128
0.600745
0.581196
0.557141
0.52771
0.655451
0.655328
0.655023
0.654494
0.653708
0.652618
0.651158
0.649239
0.646748
0.643545
0.639454
0.634262
0.627704
0.619463
0.609165
0.596369
0.580625
0.561406
0.538341
0.51095
0.646001
0.645816
0.645362
0.644589
0.643469
0.641959
0.639992
0.637481
0.63432
0.630375
0.625485
0.619457
0.61206
0.603024
0.592042
0.578772
0.562859
0.543941
0.521658
0.495882
0.636826
0.636588
0.636004
0.635019
0.633609
0.631735
0.629332
0.626319
0.622594
0.618037
0.612502
0.605818
0.597786
0.588179
0.576747
0.56322
0.54732
0.528804
0.507362
0.483067
0.628008
0.627724
0.627029
0.625861
0.624202
0.622016
0.619244
0.615809
0.611619
0.606565
0.600518
0.593328
0.584827
0.574826
0.563121
0.549504
0.533753
0.515714
0.495113
0.472121
0.619614
0.619292
0.618501
0.617178
0.615308
0.61286
0.60978
0.605997
0.601429
0.595977
0.58953
0.58196
0.573122
0.562863
0.551016
0.537421
0.521903
0.504365
0.48456
0.462718
0.611705
0.611349
0.610479
0.609026
0.606979
0.604313
0.600979
0.596914
0.592042
0.586279
0.579526
0.571676
0.562607
0.552193
0.540299
0.526803
0.511564
0.494525
0.475466
0.454651
0.604328
0.603946
0.603009
0.601448
0.599255
0.596412
0.592872
0.588579
0.583468
0.577465
0.570484
0.562435
0.553216
0.542724
0.530851
0.517502
0.502565
0.486012
0.467648
0.447749
0.597526
0.597121
0.596131
0.594481
0.59217
0.589182
0.585478
0.581006
0.57571
0.569524
0.562378
0.554193
0.544886
0.534372
0.522566
0.509392
0.494765
0.478672
0.460948
0.441862
0.591332
0.590909
0.589875
0.588154
0.585748
0.582645
0.578811
0.574201
0.568763
0.562443
0.55518
0.546908
0.537559
0.527062
0.51535
0.502366
0.48804
0.472376
0.455232
0.436862
0.585773
0.585336
0.584266
0.582489
0.580008
0.576815
0.572881
0.568164
0.562621
0.556204
0.548862
0.54054
0.53118
0.520726
0.509124
0.496329
0.48229
0.467015
0.45039
0.432644
0.580872
0.580423
0.579326
0.577504
0.574964
0.571702
0.567691
0.562894
0.557274
0.55079
0.543398
0.535051
0.525702
0.515306
0.503817
0.491205
0.477428
0.4625
0.44633
0.42912
0.576644
0.576186
0.575068
0.573213
0.570628
0.567313
0.563244
0.558389
0.552714
0.546184
0.538762
0.530409
0.521083
0.51075
0.499372
0.486926
0.473382
0.458756
0.442977
0.42622
0.573104
0.572639
0.571506
0.569624
0.567006
0.563652
0.55954
0.554643
0.548931
0.542372
0.534934
0.526584
0.517288
0.507016
0.495739
0.48344
0.470095
0.455723
0.440271
0.423887
0.570261
0.569792
0.568646
0.566746
0.564104
0.560721
0.55658
0.551653
0.545916
0.539339
0.531894
0.523553
0.514287
0.50407
0.49288
0.480702
0.467521
0.453355
0.438164
0.422076
0.568123
0.56765
0.566497
0.564584
0.561924
0.558522
0.554361
0.549415
0.543661
0.537074
0.529628
0.521297
0.512057
0.501885
0.490762
0.478679
0.465623
0.451613
0.436621
0.420754
0.566695
0.566219
0.56506
0.563139
0.560469
0.557055
0.552881
0.547924
0.54216
0.535567
0.528122
0.519799
0.510578
0.500437
0.489362
0.477343
0.464373
0.45047
0.435615
0.419903
0.565986
0.565506
0.564345
0.562421
0.559745
0.556325
0.552145
0.547182
0.541415
0.53482
0.527375
0.519057
0.509845
0.499721
0.488669
0.476682
0.463756
0.449907
0.435128
0.419513
0.518097
0.46102
0.40583
0.34964
0.293659
0.239907
0.18883
0.140526
0.0958394
0.0554384
0.507676
0.452699
0.399474
0.348609
0.29796
0.248885
0.202123
0.15821
0.116818
0.0787678
0.49353
0.442215
0.39184
0.34562
0.300005
0.25536
0.212693
0.172447
0.134144
0.0985097
0.479182
0.43263
0.385975
0.343726
0.302406
0.261577
0.222275
0.184942
0.149151
0.1156
0.466396
0.424378
0.381537
0.34264
0.304851
0.26726
0.230754
0.195831
0.162152
0.130394
0.455378
0.417269
0.378026
0.342015
0.307118
0.272269
0.238166
0.20531
0.1734
0.143202
0.445928
0.411159
0.375184
0.341698
0.309188
0.276637
0.244594
0.213687
0.183232
0.154356
0.43786
0.405949
0.372859
0.341583
0.311064
0.280422
0.250017
0.220253
0.191784
0.16411
0.43101
0.401536
0.370938
0.341583
0.312741
0.283719
0.254785
0.226364
0.199215
0.172572
0.425213
0.39781
0.369335
0.341636
0.314222
0.286587
0.25897
0.231794
0.205579
0.179859
0.420323
0.394672
0.367986
0.341704
0.315507
0.289055
0.262567
0.236411
0.211018
0.186131
0.416212
0.392033
0.366841
0.341759
0.316598
0.291149
0.265619
0.240335
0.215673
0.191518
0.412775
0.389819
0.365861
0.341785
0.317498
0.292895
0.268179
0.243646
0.219628
0.196109
0.409923
0.387969
0.365016
0.341771
0.318215
0.294321
0.270291
0.246398
0.222944
0.199977
0.407586
0.386435
0.364283
0.341711
0.318754
0.295446
0.271988
0.248637
0.22567
0.203179
0.405709
0.385177
0.363646
0.341602
0.319124
0.29629
0.273301
0.2504
0.227848
0.205762
0.404247
0.384166
0.36309
0.341441
0.31933
0.296867
0.274252
0.251719
0.229512
0.207767
0.403164
0.383371
0.362593
0.341209
0.319358
0.297171
0.274846
0.252607
0.23068
0.209215
0.40245
0.382787
0.362146
0.340894
0.319191
0.297181
0.27506
0.253048
0.231351
0.210113
0.402147
0.382527
0.361914
0.340682
0.31902
0.297077
0.275043
0.253133
0.231599
0.2105
)
;

boundaryField
{
    bottom
    {
        type            symmetryPlane;
    }
    right
    {
        type            fixedValue;
        value           uniform 0;
    }
    top
    {
        type            symmetryPlane;
    }
    left
    {
        type            zeroGradient;
    }
    cylinder
    {
        type            zeroGradient;
    }
    defaultFaces
    {
        type            empty;
    }
}


// ************************************************************************* //
