/*--------------------------------*- C++ -*----------------------------------*\
| =========                 |                                                 |
| \\      /  F ield         | OpenFOAM: The Open Source CFD Toolbox           |
|  \\    /   O peration     | Version:  4.1                                   |
|   \\  /    A nd           | Web:      www.OpenFOAM.org                      |
|    \\/     M anipulation  |                                                 |
\*---------------------------------------------------------------------------*/
FoamFile
{
    version     2.0;
    format      ascii;
    class       surfaceScalarField;
    location    "5";
    object      phi;
}
// * * * * * * * * * * * * * * * * * * * * * * * * * * * * * * * * * * * * * //

dimensions      [0 3 -1 0 0 0 0];

internalField   nonuniform List<scalar> 
3890
(
0.000656126
0.000756537
-0.00141266
0.00326034
-0.00346297
0.000858749
0.00813362
-0.0112871
0.00641383
0.0151095
-0.0210314
0.0140555
0.0235163
-0.03104
0.0226333
0.0324484
-0.0400042
0.0310721
0.0410845
-0.047203
0.0385669
0.04886
-0.0524794
0.0447039
0.0554097
-0.0559087
0.0493591
-0.0579565
0.0527593
0.0606069
0.000920994
-0.000164457
0.00429183
-0.0068338
0.0102514
-0.0172467
0.0181872
-0.0289671
0.0269902
-0.0398431
0.035584
-0.048598
0.0432538
-0.0548728
0.0496829
-0.0589085
0.0549282
-0.0611541
-0.0623063
0.0592779
0.00125197
-0.00141643
0.0054591
-0.0110409
0.0123655
-0.0241531
0.0207829
-0.0373845
0.0292995
-0.0483598
0.036919
-0.0562175
0.0432115
-0.0611653
0.0481767
-0.0638737
0.0520728
-0.0650502
-0.0653881
0.0551547
0.00163656
-0.00305298
0.00665946
-0.0160638
0.01419
-0.0316837
0.0225007
-0.0456952
0.0301492
-0.0560083
0.0364401
-0.0625084
0.0412967
-0.0660218
0.0449732
-0.0675502
0.0478329
-0.0679099
-0.0677217
0.0501665
0.0020513
-0.00510428
0.00775435
-0.0217669
0.0154572
-0.0393865
0.0231243
-0.0533623
0.0295557
-0.0624397
0.034448
-0.0674007
0.0380156
-0.0695895
0.0406457
-0.0701803
0.0427104
-0.0699745
-0.0694675
0.0444561
0.0024634
-0.00756768
0.00859754
-0.027901
0.0160006
-0.0467895
0.0226523
-0.060014
0.0277517
-0.0675391
0.0313512
-0.0710002
0.0338469
-0.0720852
0.0356626
-0.071996
0.0371219
-0.0714337
-0.0707417
0.0383961
0.00283046
-0.0103981
0.00907198
-0.0341425
0.0157861
-0.0535036
0.0212367
-0.0654646
0.025046
-0.0713485
0.0275252
-0.0734794
0.0291481
-0.0737081
0.0303072
-0.0731551
0.0312524
-0.072379
-0.0715953
0.0321059
0.00310539
-0.0135035
0.00911423
-0.0401514
0.0148833
-0.0592727
0.0190933
-0.0696745
0.0217314
-0.0739866
0.0232641
-0.0750121
0.0241676
-0.0746116
0.0247711
-0.0737586
0.0252554
-0.0728634
-0.0720358
0.025696
0.00324783
-0.0167514
0.00872901
-0.0456326
0.0134213
-0.063965
0.01644
-0.0726932
0.0180471
-0.0755936
0.0187784
-0.0757433
0.0190667
-0.0749
0.0191692
-0.073861
0.0192059
-0.0729001
-0.0720543
0.0192244
0.0032354
-0.0199868
0.00797931
-0.0503765
0.0115493
-0.0675351
0.013467
-0.0746109
0.0141741
-0.0763008
0.0142123
-0.0757815
0.0139501
-0.0746378
0.0135796
-0.0734904
0.013179
-0.0724995
0.0127708
-0.0716461
-0.000837919
0.000837919
-0.00233028
0.00149236
-0.00400489
0.00167461
-0.00560513
0.00160023
-0.00696815
0.00136303
-0.00797786
0.00100971
-0.00854935
0.00057149
-0.00862674
7.73911e-05
-0.00821534
-0.000411395
-0.000838394
-0.00737695
-0.000737403
0.00157532
-0.00204778
0.00280274
-0.00349663
0.00312346
-0.00483214
0.00293575
-0.00589213
0.00242302
-0.00655949
0.00167706
-0.00674319
0.00075519
-0.00639028
-0.000275519
-0.00548007
-0.00132161
-0.00227957
-0.00403889
-0.000558521
0.00213384
-0.0015435
0.00378771
-0.00257426
0.00415422
-0.00341391
0.00377539
-0.00390275
0.00291186
-0.00392381
0.00169813
-0.00337768
0.000209055
-0.00220749
-0.0014457
-0.000346963
-0.00318214
-0.00474047
0.00211393
-0.000344536
0.00247838
-0.00091627
0.00435945
-0.00139828
0.00463623
-0.00157116
0.00394828
-0.00127827
0.00261897
-0.000401989
0.000821844
0.00113374
-0.00132667
0.00340806
-0.00372002
0.00645477
-0.00622884
-0.00862954
0.0103438
-0.000139102
0.00261748
-0.000273952
0.0044943
-0.0001451
0.00450738
0.000455211
0.00334797
0.00168298
0.0013912
0.00364797
-0.00114315
0.00642223
-0.00410093
0.010042
-0.00733976
0.0145033
-0.0106902
-0.0140536
0.0199274
2.75712e-05
0.00258991
0.000304562
0.00421731
0.00106271
0.00374923
0.00250119
0.00190949
0.00477769
-0.000885297
0.00799614
-0.00436161
0.0121936
-0.00829837
0.017338
-0.0124842
0.0233159
-0.016668
-0.0209817
0.0302439
0.000147032
0.00244288
0.00080147
0.00356287
0.002197
0.0023537
0.00454071
-0.000434222
0.00798665
-0.00433123
0.0126003
-0.00897527
0.0183364
-0.0140345
0.0250424
-0.0191901
0.0324639
-0.0240896
-0.0290815
0.0405637
0.000237238
0.00220564
0.00126149
0.00253861
0.00334198
0.000273217
0.00669897
-0.00379122
0.011444
-0.00907626
0.017536
-0.0150673
0.024768
-0.0212665
0.0328083
-0.0272304
0.0412793
-0.0325605
-0.0376472
0.049845
0.000330665
0.00187498
0.00177064
0.00109864
0.00464569
-0.00260183
0.00915147
-0.008297
0.0152776
-0.0152024
0.0227627
-0.0225524
0.0311581
-0.0296619
0.039955
-0.0360273
0.0487161
-0.0413216
-0.0457491
0.056818
0.000462312
0.0024197
0.0062317
0.0119902
0.0194211
0.0279408
0.0368458
0.0455223
0.0535598
0.0605699
-0.00602692
-0.00135003
-0.00443363
-0.0015933
-0.00258762
-0.00184601
-0.000514607
-0.00207301
0.00175531
-0.00226992
0.00419749
-0.00244217
0.00678237
-0.00258488
0.00948005
-0.00269768
0.0122614
-0.00278132
0.0150985
-0.00283715
0.0179657
-0.0028672
0.0208398
-0.00287407
0.0237006
-0.00286082
0.0265315
-0.00283085
0.0293193
-0.00278784
0.0320551
-0.00273576
0.0347342
-0.0026791
0.0373565
-0.00262235
0.0399333
-0.00257681
-0.00253108
-0.00262041
-0.00276851
-0.00098304
-0.00323066
0.00087302
-0.00370207
0.00293865
-0.00413864
0.00519148
-0.00452275
0.00760042
-0.00485111
0.0101375
-0.00512193
0.0127743
-0.00533449
0.0154827
-0.00548976
0.0182359
-0.00559036
0.0210091
-0.00564036
0.02378
-0.00564497
0.0265295
-0.00561034
0.0292419
-0.00554323
0.0319051
-0.00545103
0.0345103
-0.00534095
0.0370543
-0.00522312
0.0395332
-0.00510127
0.0419645
-0.00500814
-0.00489294
0.0036625
-0.00431708
0.00535769
-0.00492585
0.00724412
-0.00558849
0.00931014
-0.00620466
0.011529
-0.0067416
0.0138739
-0.00719606
0.0163195
-0.00756751
0.01884
-0.00785501
0.0214098
-0.00805948
0.024004
-0.00818456
0.0265999
-0.00823627
0.0291773
-0.00822238
0.0317191
-0.00815217
0.0342114
-0.00803555
0.0366442
-0.00788385
0.0390094
-0.0077061
0.041306
-0.00751978
0.0435269
-0.00732208
0.0456917
-0.00717297
-0.00697133
0.0120141
-0.0059873
0.0137916
-0.00670336
0.0157087
-0.00750558
0.017759
-0.008255
0.0199184
-0.00890103
0.0221634
-0.00944098
0.0244724
-0.00987654
0.0268238
-0.0102064
0.0291953
-0.010431
0.0315655
-0.0105548
0.0339147
-0.0105854
0.0362257
-0.0105334
0.0384846
-0.010411
0.04068
-0.010231
0.0428054
-0.0100092
0.0448535
-0.00975425
0.0468273
-0.00949355
0.0487159
-0.00921074
0.0505439
-0.00900091
-0.00869515
0.0216867
-0.00774657
0.0234995
-0.0085162
0.0254014
-0.00940752
0.0273866
-0.0102402
0.0294341
-0.0109485
0.0315247
-0.0115316
0.0336413
-0.0119931
0.0357661
-0.0123312
0.0378809
-0.0125458
0.0399679
-0.0126418
0.0420118
-0.0126293
0.0439994
-0.0125209
0.0459209
-0.0123325
0.0477687
-0.0120788
0.0495401
-0.0117806
0.05123
-0.0114441
0.0528453
-0.0111088
0.0543732
-0.0107387
0.0558421
-0.0104698
-0.0100541
0.0319672
-0.0094698
0.0337122
-0.0102612
0.0355047
-0.0112001
0.037334
-0.0120694
0.0391849
-0.0127995
0.0410448
-0.0133915
0.0428996
-0.013848
0.0447341
-0.0141657
0.0465336
-0.0143452
0.0482848
-0.0143931
0.0499771
-0.0143216
0.0516021
-0.014146
0.0531554
-0.0138859
0.0546336
-0.0135569
0.0560386
-0.0131856
0.0573673
-0.0127728
0.05863
-0.0123716
0.0598137
-0.0119223
0.0609479
-0.0116041
-0.0110879
0.042084
-0.0109901
0.0436265
-0.0118037
0.0451859
-0.0127595
0.0467454
-0.0136289
0.0483024
-0.0143564
0.0498504
-0.0149395
0.0513749
-0.0153725
0.0528613
-0.0156522
0.0542989
-0.0157827
0.0556794
-0.0157736
0.0569978
-0.0156401
0.0582514
-0.0153996
0.059441
-0.0150755
0.0605673
-0.0146832
0.0616359
-0.0142542
0.0626454
-0.0137823
0.0636075
-0.0133338
0.0645088
-0.0128236
0.0653767
-0.012472
-0.0118761
0.0510369
-0.012182
0.0522732
-0.01304
0.0534981
-0.0139844
0.0547118
-0.0148426
0.0559194
-0.0155641
0.0571076
-0.0161276
0.0582611
-0.016526
0.0593717
-0.0167628
0.0604361
-0.0168471
0.0614528
-0.0167903
0.062423
-0.0166102
0.0633488
-0.0163254
0.0642347
-0.0159614
0.065083
-0.0155314
0.0658999
-0.0150711
0.0666833
-0.0145657
0.0674436
-0.0140941
0.0681659
-0.0135458
0.0688726
-0.0131787
-0.0125258
0.0576964
-0.0130604
0.0586454
-0.013989
0.059546
-0.0148849
0.0604232
-0.0157199
0.0612843
-0.0164252
0.0621169
-0.0169603
0.0629161
-0.0173251
0.0636857
-0.0175324
0.0644329
-0.0175943
0.0651645
-0.0175219
0.0658861
-0.0173319
0.0666008
-0.0170401
0.0673112
-0.0166717
0.0680161
-0.0162363
0.0687176
-0.0157726
0.0694094
-0.0152576
0.0700976
-0.0147823
0.0707657
-0.014214
0.0714309
-0.0138438
-0.0131506
0.0616145
-0.014105
0.0623673
-0.0147417
0.0630034
-0.015521
0.0635805
-0.0162969
0.0641262
-0.0169709
0.0646593
-0.0174934
0.0651939
-0.0178597
0.0657414
-0.0180799
0.0663114
-0.0181643
0.0669102
-0.0181207
0.0675408
-0.0179625
0.0682018
-0.0177011
0.0688904
-0.0173603
0.0695993
-0.0169452
0.0703239
-0.0164972
0.0710536
-0.0159873
0.0717881
-0.0155167
0.0725126
-0.0149385
0.0732358
-0.0145669
-0.0138471
0.0882505
-0.0127063
-0.0896492
0.0871792
-0.0136705
0.0861078
-0.0144496
0.084981
-0.0151702
0.0838075
-0.0157973
0.0826061
-0.016292
0.081392
-0.0166456
0.0801772
-0.0168651
0.0789738
-0.0169609
0.0777946
-0.0169415
0.0766516
-0.0168195
0.0755546
-0.0166041
0.074511
-0.0163168
0.0735259
-0.0159601
0.0726012
-0.0155726
0.0717382
-0.0151242
0.0709326
-0.0147112
0.0701846
-0.0141905
0.0694786
-0.0138609
-0.0131959
0.0902984
-0.0114498
-0.0915549
0.0890758
-0.0124478
0.0878902
-0.013264
0.0866781
-0.0139581
0.08543
-0.0145492
0.0841622
-0.0150242
0.0828908
-0.0153742
0.0816273
-0.0156015
0.0803814
-0.0157151
0.0791635
-0.0157235
0.077983
-0.015639
0.0768482
-0.0154693
0.075765
-0.0152336
0.0747377
-0.0149327
0.0737672
-0.0146022
0.0728551
-0.0142121
0.0719958
-0.0138519
0.0711918
-0.0133865
0.070425
-0.013094
-0.0124799
0.0910548
-0.0102595
-0.092245
0.089844
-0.011237
0.0886426
-0.0120627
0.0874293
-0.0127448
0.0861905
-0.0133104
0.0849335
-0.0137673
0.0836723
-0.014113
0.0824187
-0.014348
0.0811826
-0.014479
0.0799729
-0.0145138
0.078798
-0.0144641
0.0776652
-0.0143365
0.0765796
-0.014148
0.0755452
-0.0138982
0.0745625
-0.0136195
0.0736331
-0.0132827
0.0727517
-0.0129706
0.0719215
-0.0125562
0.0711249
-0.0122975
-0.0117349
0.0910049
-0.0091715
-0.0920929
0.0898773
-0.0101094
0.0887328
-0.0109182
0.0875706
-0.0115826
0.0863856
-0.0121254
0.0851825
-0.0125642
0.0839726
-0.0129031
0.0827674
-0.0131427
0.0815763
-0.0132879
0.0804076
-0.0133451
0.0792686
-0.0133251
0.0781657
-0.0132336
0.0771035
-0.0130859
0.0760857
-0.0128805
0.0751132
-0.0126469
0.0741876
-0.0123572
0.0733046
-0.0120875
0.0724678
-0.0117194
0.0716615
-0.0114912
-0.010978
0.0905309
-0.00820704
-0.0914954
0.0895127
-0.00909113
0.0884576
-0.0098632
0.087374
-0.0104989
0.0862652
-0.0110165
0.0851368
-0.0114358
0.0839983
-0.0117645
0.0828597
-0.0120041
0.0817301
-0.0121583
0.0806172
-0.0122323
0.0795279
-0.0122358
0.078468
-0.0121737
0.0774417
-0.0120596
0.076453
-0.0118918
0.0755027
-0.0116966
0.0745932
-0.0114477
0.0737206
-0.0112149
0.0728895
-0.0108883
0.0720854
-0.0106872
-0.0102199
0.0899099
-0.00736289
-0.0907541
0.0889978
-0.00817906
0.0880354
-0.00890073
0.0870357
-0.00949928
0.0860072
-0.00998798
0.0849566
-0.0103853
0.0838924
-0.0107003
0.0828234
-0.0109351
0.0817581
-0.011093
0.0807041
-0.0111783
0.0796676
-0.0111992
0.0786542
-0.0111603
0.0776681
-0.0110735
0.076713
-0.0109367
0.0757903
-0.0107739
0.0749026
-0.0105599
0.0740467
-0.010359
0.0732276
-0.0100692
0.0724325
-0.00989205
-0.00946782
0.0892892
-0.00661614
-0.0900359
0.0884675
-0.00735742
0.0875883
-0.00802151
0.0866665
-0.00857746
0.0857123
-0.00903384
0.0847337
-0.00940664
0.0837383
-0.00970482
0.0827342
-0.00993106
0.0817294
-0.0100882
0.0807309
-0.0101798
0.0797448
-0.0102131
0.0787764
-0.0101919
0.0778297
-0.0101269
0.0769086
-0.0100156
0.0760144
-0.00987974
0.0751503
-0.00969578
0.0743135
-0.00952226
0.0735097
-0.00926538
0.0727269
-0.00910932
-0.00872525
0.0887277
-0.00594262
-0.0894012
0.0879796
-0.00660935
0.0871712
-0.00721313
0.0863171
-0.00772329
0.085428
-0.0081448
0.0845123
-0.00849096
0.0835775
-0.00876995
0.0826309
-0.00898454
0.0816801
-0.00913733
0.0807316
-0.0092313
0.0797912
-0.00927273
0.078864
-0.00926467
0.0779539
-0.00921682
0.0770647
-0.00912644
0.0761981
-0.0090131
0.0753573
-0.00885493
0.0745401
-0.00870509
0.0737524
-0.00847774
0.0729836
-0.00834045
-0.00799402
0.088241
-0.00532493
-0.0888587
0.0875517
-0.00592005
0.0868019
-0.00646334
0.0860049
-0.00692625
0.0851714
-0.00731127
0.0843096
-0.00762924
0.083427
-0.00788726
0.0825304
-0.00808793
0.0816266
-0.00823359
0.0807221
-0.00832674
0.0798222
-0.00837282
0.0789318
-0.00837432
0.0780548
-0.00833982
0.0771949
-0.00826656
0.0763539
-0.00817208
0.0755352
-0.00803619
0.074737
-0.00790696
0.0739656
-0.00770631
0.073211
-0.00758582
-0.00727485
0.0878261
-0.00475039
-0.0884006
0.0871833
-0.00527728
0.0864814
-0.00576139
0.085732
-0.00617688
0.0849454
-0.00652467
0.0841296
-0.00681346
0.0832916
-0.00704925
0.082438
-0.0072343
0.0815751
-0.00737069
0.0807089
-0.00746052
0.0798445
-0.00750848
0.0789868
-0.00751659
0.0781394
-0.00749238
0.0773059
-0.00743315
0.0764884
-0.00735451
0.0756902
-0.00723805
0.0749101
-0.00712687
0.0741544
-0.00695055
0.0734138
-0.0068452
-0.00656782
0.0874739
-0.00420908
-0.0880152
0.086868
-0.00467137
0.086205
-0.00509839
0.0854952
-0.00546714
0.0847482
-0.00577758
0.0839714
-0.00603666
0.0831715
-0.00624936
0.0823547
-0.00641757
0.0815271
-0.00654308
0.0806942
-0.00662764
0.079861
-0.00667527
0.079032
-0.00668761
0.0782109
-0.00667121
0.0774012
-0.00662349
0.0766049
-0.00655823
0.0758257
-0.00645883
0.0750624
-0.0063636
0.0743215
-0.00620964
0.0735944
-0.00611805
-0.00587262
0.0871756
-0.00369338
-0.0876913
0.0865989
-0.00409473
0.0859676
-0.00446704
0.0852906
-0.0047902
0.0845767
-0.00506361
0.0838328
-0.00529282
0.0830654
-0.00548191
0.0822802
-0.00563241
0.081483
-0.00574583
0.080679
-0.00582362
0.0798729
-0.00586919
0.0790691
-0.00588385
0.0782712
-0.00587325
0.0774827
-0.00583499
0.0767055
-0.00578111
0.0759435
-0.00569682
0.0751957
-0.00561581
0.0744686
-0.00548254
0.0737542
-0.00540358
-0.0051887
0.0869239
-0.00319752
-0.0874198
0.0863705
-0.00354131
0.0857648
-0.00386131
0.0851148
-0.00414025
0.0844284
-0.00437721
0.0837123
-0.00457667
0.0829723
-0.00474188
0.082214
-0.0048741
0.0814427
-0.00497455
0.0806635
-0.00504442
0.0798809
-0.00508657
0.079099
-0.00510203
0.0783214
-0.00509563
0.0775516
-0.00506517
0.0767915
-0.00502102
0.0760449
-0.00495025
0.0753112
-0.00488204
0.0745967
-0.0047681
0.073894
-0.00470082
-0.00451528
0.0867135
-0.00271693
-0.0871941
0.0861784
-0.00300619
0.0855933
-0.00327617
0.0849653
-0.00351228
0.0843016
-0.00371355
0.0836085
-0.00388352
0.0828914
-0.00402481
0.0821557
-0.00413838
0.0814064
-0.00422524
0.0806483
-0.00428631
0.0798857
-0.00432399
0.0791227
-0.00433907
0.0783627
-0.00433558
0.0776091
-0.00431159
0.0768639
-0.00427587
0.076131
-0.00421733
0.0754097
-0.00416075
0.0747066
-0.004065
0.0740144
-0.00400862
-0.00385141
0.0865399
-0.002248
-0.0870089
0.0860191
-0.00248538
0.0854503
-0.00270737
0.08484
-0.002902
0.0841948
-0.00306834
0.0835205
-0.00320919
0.0828223
-0.00332662
0.0821053
-0.00342136
0.0813742
-0.00349418
0.0806338
-0.00354583
0.079888
-0.00357824
0.079141
-0.00359201
0.0783958
-0.00359044
0.0776561
-0.00357188
0.0769238
-0.00354353
0.0762026
-0.00349618
0.0754922
-0.00345031
0.074799
-0.00337184
0.0741161
-0.00332573
-0.00319598
0.0863996
-0.00178787
-0.0868597
0.0858898
-0.00197561
0.0853338
-0.00215134
0.0847375
-0.00230566
0.0841069
-0.00243781
0.0834477
-0.00254994
0.0827647
-0.00264364
0.0820628
-0.00271945
0.0813466
-0.00277796
0.0806205
-0.00281974
0.0798885
-0.00284628
0.0791545
-0.00285805
0.0784217
-0.00285762
0.0776935
-0.00284368
0.0769719
-0.00282188
0.0762606
-0.00278494
0.0755593
-0.00274903
0.0748746
-0.00268712
0.0741997
-0.00265077
-0.0025478
0.0862895
-0.00133425
-0.0867431
0.0857881
-0.00147415
0.0852417
-0.00160503
0.0846561
-0.00172002
0.0840369
-0.0018186
0.0833893
-0.00190237
0.0827182
-0.0019725
0.0820281
-0.00202936
0.0813235
-0.00207338
0.0806087
-0.00210497
0.0798877
-0.00212521
0.0791641
-0.00213447
0.0784411
-0.00213461
0.0777221
-0.00212469
0.077009
-0.00210881
0.0763058
-0.00208168
0.0756119
-0.00205513
0.074934
-0.00200928
0.0742655
-0.00198226
-0.00190555
0.0862073
-0.000885471
-0.0866561
0.0857119
-0.000978778
0.0851727
-0.00106581
0.0845949
-0.0011422
0.083984
-0.0012077
0.083345
-0.00126342
0.0826826
-0.00131011
0.0820013
-0.00134804
0.0813054
-0.00137745
0.0805991
-0.00139864
0.0798861
-0.00141228
0.0791703
-0.00141868
0.0784547
-0.00141895
0.0777426
-0.00141263
0.077036
-0.0014022
0.0763388
-0.00138448
0.0756505
-0.00136683
0.0749779
-0.0013367
0.0743143
-0.00131862
-0.00126787
0.0861513
-0.000440343
-0.0865964
0.0856604
-0.000487823
0.0851261
-0.000531553
0.0845536
-0.000569692
0.0839483
-0.000602362
0.083315
-0.000630199
0.0826585
-0.000653565
0.081983
-0.000672564
0.0812928
-0.00068729
0.0805921
-0.000697931
0.0798846
-0.000704774
0.079174
-0.000708068
0.0784633
-0.000708201
0.0777559
-0.00070523
0.0770535
-0.000699883
0.0763605
-0.000691434
0.0756758
-0.000682106
0.0750071
-0.00066802
0.0743461
-0.000657634
-0.000634029
0.0861214
-0.0865618
0.0856336
0.0851021
0.0845324
0.08393
0.0832998
0.0826462
0.0819737
0.0812864
0.0805884
0.0798837
0.0791756
0.0784674
0.0777622
0.0770623
0.0763709
0.0756888
0.0750207
0.0743631
0.0723041
0.0114042
-0.0709375
0.0738928
0.0176356
0.0757083
0.0238806
0.0777567
0.0300575
0.0800151
0.0361378
0.0824969
0.0419743
0.0849182
0.0477452
0.0874836
0.0525893
0.0886452
0.0581163
0.0596029
0.0715632
0.0101648
-0.0703238
0.073059
0.0161398
0.0748082
0.0221313
0.0768424
0.0280233
0.0790824
0.0338977
0.0816744
0.0393824
0.0842446
0.045175
0.0872223
0.0496117
0.0897516
0.0555869
0.0577996
0.0709606
0.00906848
-0.0698643
0.0723417
0.0147586
0.0739846
0.0204885
0.0759522
0.0260557
0.0781287
0.0317212
0.0806914
0.0368196
0.0833751
0.0424913
0.0863682
0.0466186
0.0896222
0.0523329
0.0551768
0.0704855
0.00809681
-0.0695138
0.0717581
0.013486
0.0733004
0.0189462
0.0751802
0.0241759
0.0773089
0.0295926
0.0797866
0.0343419
0.082558
0.0397198
0.0854957
0.043681
0.0889616
0.048867
0.0520455
0.0701113
0.007226
-0.0692405
0.0712902
0.0123071
0.0727551
0.0174812
0.0745472
0.0223839
0.0766408
0.0274989
0.0790259
0.0319568
0.0818051
0.0369406
0.0846996
0.0407864
0.0881272
0.0454394
0.0486772
0.0698129
0.00643805
-0.0690249
0.0709106
0.0112094
0.0723154
0.0160765
0.0740299
0.0206693
0.0760835
0.0254454
0.0783918
0.0296486
0.0811153
0.0342171
0.0839839
0.0379178
0.0873142
0.0421091
0.0452374
0.0695718
0.00572089
-0.0688546
0.0705994
0.0101818
0.0719518
0.0147241
0.0736031
0.019018
0.075609
0.0234395
0.0778642
0.0273934
0.0805163
0.031565
0.0833646
0.0350695
0.0866071
0.0388666
0.0418086
0.069376
0.0050661
-0.0687212
0.0703437
0.00921398
0.0716475
0.0134204
0.0732497
0.0174157
0.0752074
0.0214818
0.0774274
0.0251734
0.0800171
0.0289754
0.0828402
0.0322465
0.0860127
0.0356941
0.0384201
0.0692168
0.00446692
-0.0686176
0.070134
0.00829679
0.0713928
0.0121615
0.0729565
0.0158521
0.0748705
0.0195678
0.077063
0.0229809
0.0796024
0.0264359
0.0823958
0.0294531
0.0855139
0.032576
0.0350752
0.0690879
0.00391728
-0.0685383
0.0699623
0.00742246
0.0711808
0.010943
0.0727125
0.0143204
0.0745885
0.0176918
0.0767557
0.0208137
0.0792553
0.0239363
0.0820196
0.0266889
0.085095
0.0295006
0.0317696
0.0689842
0.00341131
-0.0684782
0.0698218
0.0065848
0.071005
0.00975985
0.0725091
0.0128163
0.074353
0.0158478
0.0764967
0.01867
0.0789644
0.0214686
0.0817027
0.0239506
0.0847434
0.0264599
0.0284977
0.0689012
0.00294359
-0.0684334
0.0697074
0.00577858
0.0708601
0.0086071
0.07234
0.0113364
0.0741573
0.0140306
0.07628
0.0165473
0.0787217
0.0190268
0.0814373
0.021235
0.0844485
0.0234488
0.0252549
0.0688353
0.00250721
-0.0683989
0.0696144
0.00499946
0.0707414
0.00748011
0.0722005
0.0098774
0.0739958
0.0122353
0.0761002
0.0144428
0.0785205
0.0166065
0.0812163
0.0185392
0.0842023
0.0204628
0.0220374
0.0687836
0.00209744
-0.0683738
0.0695397
0.00424338
0.0706452
0.00637457
0.0720866
0.00843602
0.0738639
0.010458
0.0759529
0.0123538
0.0783553
0.0142042
0.0810343
0.0158602
0.0839987
0.0174983
0.0188419
0.0687439
0.00171164
-0.0683581
0.0694806
0.00350668
0.0705684
0.0052867
0.0719951
0.00700933
0.0737578
0.0086953
0.0758341
0.0102775
0.0782219
0.0118164
0.0808868
0.0131954
0.083833
0.0145522
0.0156661
0.068714
0.00134539
-0.0683478
0.0694347
0.00278599
0.0705084
0.00421302
0.0719233
0.00559445
0.0736745
0.00694409
0.0757407
0.00821124
0.0781169
0.00944015
0.0807702
0.010542
0.083701
0.0116213
0.0125074
0.0686923
0.000994703
-0.0683416
0.0694002
0.00207804
0.0704629
0.00315039
0.0718687
0.00418862
0.0736113
0.00520152
0.0756699
0.00615265
0.0780372
0.00707283
0.0806812
0.00789799
0.0835994
0.00870314
0.00936368
0.0686772
0.000655929
-0.0683384
0.0693755
0.00137971
0.07043
0.00209585
0.0718294
0.00278924
0.073566
0.00346496
0.0756193
0.00409935
0.0779802
0.00471188
0.0806173
0.00526094
0.0835253
0.00579512
0.00623292
0.0686669
0.000326275
-0.0683372
0.0693587
0.000687911
0.0704079
0.0010466
0.0718034
0.00139378
0.0735365
0.00173187
0.0755867
0.00204907
0.0779437
0.00235496
0.0805758
0.00262878
0.0834762
0.0028948
0.00311263
0.0686614
-0.0683351
0.0693493
0.0703959
0.0717897
0.0735215
0.0755706
0.0779256
0.0805543
0.0834491
0.0346872
0.0491498
-0.0453567
-0.0384803
0.0305358
0.0498311
-0.0456797
0.0263282
0.050796
-0.0465884
0.0220757
0.0520692
-0.0478167
0.0177644
0.0536301
-0.0493187
0.0133891
0.0555133
-0.051138
0.00899445
0.0575525
-0.0531579
0.00480832
0.0584282
-0.054242
0.001445
0.0533889
-0.0500256
0.0308109
-0.0293659
0.0313962
0.0530691
-0.0353155
0.0274795
0.0537478
0.0235512
0.0547243
0.0195993
0.0560211
0.015597
0.0576323
0.011539
0.0595713
0.00750037
0.0615912
0.00376243
0.0621661
0.000955089
0.0561962
0.031766
0.027894
0.0566896
-0.0315146
0.0242303
0.0574115
0.0205568
0.0583978
0.0168801
0.0596979
0.0131801
0.0613323
0.00945694
0.0632944
0.00581445
0.0652337
0.00259222
0.0653883
0.000403924
0.0583845
0.0321699
0.0239577
0.0599882
-0.0272563
0.0206118
0.0607575
0.017247
0.0617626
0.0138828
0.0630621
0.0105144
0.0647007
0.00715892
0.0666499
0.00394864
0.0684439
0.00129286
0.0680441
-0.000179391
0.0598568
0.0319905
0.0195946
0.0629524
-0.0225587
0.0165973
0.0637548
0.0135884
0.0647716
0.0105831
0.0660673
0.00758725
0.0676965
0.00464476
0.0695924
0.00193138
0.0711573
-0.000174151
0.0701496
-0.00073382
0.0604165
0.0312567
0.0148324
0.0655453
-0.0174254
0.0122202
0.066367
0.00960238
0.0673894
0.00699364
0.0686761
0.00441076
0.0702794
0.00192886
0.0720743
-0.000216647
0.0733028
-0.00146178
0.0713948
-0.00128917
0.0602438
0.0299675
0.00972531
0.0677198
-0.0118998
0.00753033
0.068562
0.00532985
0.0695899
0.00314902
0.0708569
0.0010188
0.0724096
-0.000948352
0.0740415
-0.00242942
0.0747839
-0.00288852
0.0718539
-0.0018297
0.059185
0.0281378
0.00432391
0.0694596
-0.00606368
0.00255818
0.0703277
0.000807803
0.0713403
-0.000927396
0.0725921
-0.00258624
0.0740685
-0.00398695
0.0754422
-0.00475969
0.0755566
-0.00432272
0.0714169
-0.00233057
0.0571929
0.0258072
-0.00132444
0.070855
-7.1005e-05
-0.0026486
0.0716518
-0.00395694
0.0726486
-0.00522472
0.0738599
-0.00635983
0.0752036
-0.00713739
0.0762197
-0.0071119
0.0755311
-0.00569606
0.0700011
-0.00275469
0.0542515
0.0230526
-0.00720062
0.00640955
-0.00804831
-0.00889016
-0.00966808
-0.010246
-0.0103271
-0.0094068
-0.00694083
-0.0030658
0.0448174
0.00431439
-0.0491318
0.04035
0.00446739
0.0357085
0.00464152
0.0308738
0.00483462
0.0258196
0.00505425
0.0205101
0.0053095
0.0149104
0.00559972
0.00907088
0.00583949
0.0034843
0.00558658
0.0034843
0.0447646
0.00865113
-0.0491013
0.0402799
0.0089521
0.0356268
0.00929456
0.0307865
0.00967497
0.0257321
0.0101086
0.0204281
0.0106136
0.0148381
0.0111896
0.00901369
0.011664
0.00346148
0.0111388
0.00694578
0.0446385
0.013029
-0.0490163
0.0401224
0.0134682
0.0354488
0.0139682
0.0305984
0.0145253
0.0255445
0.0151625
0.0202513
0.0159067
0.0146846
0.0167564
0.00890005
0.0174485
0.00340302
0.0166358
0.0103488
0.0444001
0.0174554
-0.0488265
0.0398471
0.0180212
0.0351503
0.018665
0.0302912
0.0193844
0.0252431
0.0202106
0.0199709
0.0211789
0.0144426
0.0222847
0.00872032
0.0231708
0.00331341
0.0220427
0.0136622
0.0439975
0.0219263
-0.0484684
0.0394112
0.0226075
0.0346964
0.0233798
0.0298368
0.024244
0.0248063
0.0252412
0.0195702
0.0264149
0.0140999
0.0277551
0.00846723
0.0288034
0.00318815
0.0273218
0.0168504
0.0433865
0.0264236
-0.0478839
0.0387766
0.0272174
0.0340528
0.0281036
0.029205
0.0290918
0.0242083
0.0302379
0.0190284
0.0315948
0.0136409
0.0331425
0.00813079
0.0343135
0.00302257
0.03243
0.0198729
0.0424913
0.0309472
-0.0470149
0.0378678
0.0318409
0.0331554
0.032816
0.028346
0.0339012
0.0234106
0.0351733
0.0183156
0.0366899
0.013044
0.0384141
0.0076978
0.0396597
0.00281174
0.0373161
0.0226847
0.0413756
0.0354813
-0.0459097
0.0367261
0.0364904
0.0320356
0.0375065
0.0272819
0.038655
0.022424
0.0400311
0.017433
0.0416808
0.0123044
0.0435427
0.00716283
0.0448013
0.00255664
0.0419223
0.0252413
0.0396136
0.0401553
-0.0442876
0.0349841
0.0411199
0.0304263
0.0420643
0.0258229
0.0432584
0.0211229
0.0447311
0.0163068
0.046497
0.0113827
0.0484668
0.0065056
0.0496784
0.00224829
0.0461796
0.0274896
0.0378478
-0.0430493
0.0332881
0.0287639
0.0242056
0.019618
0.0149769
0.0102858
0.00572227
0.00187628
0.0538083
-0.000230897
0.0540395
-0.000231239
0.0542629
-0.000223349
0.0544723
-0.000209425
0.054662
-0.000189682
0.0548263
-0.000164306
0.0549592
-0.000132953
0.0550542
-9.49514e-05
0.0551037
-4.95524e-05
0.0550995
4.19415e-06
0.055031
6.84986e-05
0.054889
0.00014203
0.0546612
0.000227801
0.0543337
0.000327528
0.0538903
0.000443395
0.053312
0.00057827
0.0525772
0.000734854
0.0516583
0.00091891
0.0505306
0.00112766
0.00139883
0.0540935
-0.000452652
0.0543135
-0.000451242
0.0545236
-0.00043348
0.054719
-0.00040479
0.0548944
-0.000365074
0.0550442
-0.000314172
0.0551625
-0.000251261
0.0552427
-0.000175053
0.0552773
-8.41634e-05
0.0552572
2.42153e-05
0.0551721
0.00015367
0.055013
0.000301138
0.054768
0.000472782
0.0544229
0.000672578
0.0539616
0.000904679
0.053365
0.00117487
0.0526115
0.00148844
0.0516728
0.00185761
0.0505249
0.00227555
0.00282238
0.0546553
-0.000646099
0.054847
-0.000642966
0.0550288
-0.000615276
0.0551954
-0.000571404
0.0553416
-0.000511237
0.0554618
-0.000434389
0.0555501
-0.000339557
0.0556
-0.000224933
0.0556043
-8.84537e-05
0.0555518
7.67294e-05
0.0554333
0.000272168
0.0552389
0.00049553
0.0549585
0.000753166
0.0545777
0.00105337
0.0540801
0.0014023
0.0534462
0.00180873
0.0526546
0.00228003
0.051676
0.00283625
0.0504881
0.0034634
0.0042942
0.0554689
-0.000795536
0.0556156
-0.00078961
0.0557519
-0.000751607
0.0558727
-0.000692224
0.0559727
-0.000611192
0.0560462
-0.000507882
0.0560872
-0.000380551
0.0560894
-0.000227202
0.0560471
-4.61378e-05
0.0559434
0.000180428
0.0557738
0.000441839
0.0555267
0.000742588
0.0551907
0.00108919
0.0547539
0.00149017
0.0541998
0.00195634
0.0535085
0.0025001
0.0526586
0.00312993
0.0516187
0.00387608
0.0503705
0.00471165
0.00583819
0.0565014
-0.000882252
0.0565839
-0.000872062
0.0566555
-0.00082326
0.0567113
-0.000748006
0.0567459
-0.000645774
0.0567537
-0.000515673
0.0567292
-0.000356051
0.056666
-0.000164021
0.0565523
6.75847e-05
0.0563776
0.00035507
0.056137
0.000682452
0.0558187
0.00106086
0.0554097
0.00149822
0.0548955
0.00200435
0.0542629
0.00258895
0.0534917
0.00327132
0.0525617
0.00405994
0.0514386
0.00499919
0.0501087
0.00604148
0.00747856
0.0577128
-0.000884914
0.0577093
-0.000868546
0.0576946
-0.000808624
0.0576638
-0.00071721
0.0576114
-0.000593338
0.0575317
-0.000435955
0.0574186
-0.000242931
0.0572736
-1.90169e-05
0.0570597
0.000281449
0.0567933
0.000621488
0.0564602
0.00101554
0.0560486
0.0014724
0.0555463
0.00200054
0.054938
0.00261268
0.0542075
0.00331941
0.0533342
0.00414465
0.0523017
0.00509246
0.051073
0.00622785
0.0496413
0.00747318
0.00923598
0.0590602
-0.000779285
0.0589463
-0.000754649
0.0588214
-0.000683711
0.0586805
-0.000576341
0.0585177
-0.000430493
0.0583282
-0.000246482
0.0581165
-3.12154e-05
0.057833
0.000264476
0.0575094
0.000605023
0.0571286
0.00100233
0.0566798
0.00146436
0.0561516
0.00200059
0.055532
0.00262012
0.0548055
0.00333919
0.0539581
0.00416686
0.0529656
0.0051371
0.0518153
0.00624273
0.0504561
0.00758709
0.0489038
0.00902548
0.0111249
0.0604995
-0.00054052
0.0602512
-0.000506369
0.0599916
-0.00042407
0.059715
-0.00029977
0.0594219
-0.000137378
0.0591046
7.07969e-05
0.058724
0.000349334
0.0583115
0.00067701
0.0578508
0.00106578
0.0573307
0.00152235
0.0567415
0.00205355
0.0560715
0.00267065
0.0553093
0.00338233
0.054439
0.00420945
0.05345
0.00515586
0.0523162
0.00627086
0.0510375
0.00752147
0.0495534
0.00907124
0.047911
0.0106679
0.0131261
0.061995
-0.000137564
0.0615815
-9.28365e-05
0.0611716
-1.41656e-05
0.0607378
0.000133988
0.0602735
0.000326945
0.0597711
0.000573247
0.0592413
0.000879109
0.0586692
0.00124916
0.0580458
0.00168915
0.0573616
0.00220653
0.0566068
0.00280837
0.0557695
0.00350792
0.0548394
0.00431249
0.0537995
0.00524931
0.052642
0.00631337
0.0513346
0.00757824
0.0498895
0.00896657
0.0482203
0.0107404
0.0464503
0.0124379
0.0152889
0.063559
0.000469948
0.0629503
0.000515781
0.0623221
0.000614119
0.0616866
0.000769493
0.0610317
0.000981819
0.0603501
0.00125484
0.0596346
0.00159462
0.0588765
0.0020072
0.0580677
0.00249802
0.0571989
0.00307528
0.0562611
0.00374619
0.0552433
0.00452566
0.0541377
0.00541811
0.0529306
0.00645642
0.0516247
0.0076193
0.0501938
0.00900916
0.0486912
0.0104691
0.046995
0.0124366
0.0453709
0.0140621
0.0176105
0.0601869
0.000466671
0.0601858
0.000516846
0.0601827
0.000617279