/*--------------------------------*- C++ -*----------------------------------*\
| =========                 |                                                 |
| \\      /  F ield         | OpenFOAM: The Open Source CFD Toolbox           |
|  \\    /   O peration     | Version:  4.1                                   |
|   \\  /    A nd           | Web:      www.OpenFOAM.org                      |
|    \\/     M anipulation  |                                                 |
\*---------------------------------------------------------------------------*/
FoamFile
{
    version     2.0;
    format      ascii;
    class       surfaceScalarField;
    location    "5";
    object      phi;
}
// * * * * * * * * * * * * * * * * * * * * * * * * * * * * * * * * * * * * * //

dimensions      [0 3 -1 0 0 0 0];

internalField   nonuniform List<scalar> 
3890
(
0.000398965
0.000917045
-0.00131601
0.00189624
-0.000465805
-0.00103146
0.00466534
-0.0038189
0.0010498
0.0087867
-0.00842485
0.00430348
0.0142518
-0.0137855
0.00832048
0.0209647
-0.0195023
0.0127894
0.0287621
-0.02525
0.0174527
0.0374599
-0.0307735
0.0220757
0.0469739
-0.0359033
0.0263892
-0.0405488
0.0300099
0.0575129
0.000570424
0.00034662
0.00255704
-0.00245242
0.00609829
-0.00736015
0.0111993
-0.0135259
0.0177303
-0.0203165
0.0254411
-0.0272132
0.0340026
-0.0338115
0.04306
-0.0398309
0.0522763
-0.0451196
-0.0495943
0.0613218
0.000776818
-0.000430198
0.00330877
-0.00498437
0.00765032
-0.0117017
0.0136698
-0.0195454
0.0210572
-0.0277038
0.029377
-0.035533
0.0381494
-0.0425839
0.0469238
-0.0486054
0.0553197
-0.0535155
-0.0573274
0.0630527
0.00101401
-0.00144421
0.00412116
-0.00809153
0.00922687
-0.0168074
0.0159962
-0.0263147
0.0239006
-0.0356082
0.0323326
-0.0439651
0.0407273
-0.0509785
0.0486406
-0.0565187
0.0557783
-0.0606532
-0.0635508
0.0620017
0.00127235
-0.00271656
0.00494453
-0.0117637
0.0106985
-0.0225613
0.017943
-0.0335592
0.0259354
-0.0436007
0.0339642
-0.0519939
0.0414819
-0.0584962
0.0481553
-0.0631921
0.0538503
-0.0663482
-0.0682867
0.0585862
0.00153717
-0.00425373
0.00571474
-0.0159413
0.011921
-0.0287676
0.0192913
-0.0409295
0.0269279
-0.0512372
0.0341185
-0.0591846
0.040433
-0.0648107
0.0457073
-0.0684663
0.0499709
-0.0706118
-0.0716763
0.0533604
0.00179003
-0.00604375
0.00636169
-0.0205129
0.0127627
-0.0351686
0.0198896
-0.0480564
0.0267904
-0.0581381
0.0328582
-0.0652523
0.0378414
-0.0697939
0.0417513
-0.0723762
0.0447445
-0.0736049
-0.0739568
0.0470249
0.00201053
-0.00805428
0.00681993
-0.0253223
0.0131298
-0.0414785
0.0196816
-0.0546082
0.0255819
-0.0640385
0.0304013
-0.0700717
0.0340781
-0.0734707
0.0367626
-0.0750607
0.0386822
-0.0755246
-0.0753316
0.0400571
0.00217861
-0.0102329
0.00703908
-0.0301828
0.0129815
-0.0474209
0.0187045
-0.0603311
0.0234646
-0.0687986
0.027036
-0.0736431
0.0295191
-0.0759538
0.0311518
-0.0766935
0.032184
-0.0765568
-0.0759673
0.0328197
0.0022771
-0.01251
0.00699129
-0.034897
0.0123308
-0.0527604
0.0170631
-0.0650634
0.020647
-0.0723825
0.0230476
-0.0760437
0.0244811
-0.0773872
0.0252245
-0.0774369
0.025516
-0.0768482
0.0255267
-0.075978
-0.000461067
0.000461066
-0.0014145
0.000953431
-0.00263265
0.00121816
-0.00399015
0.0013575
-0.00541845
0.0014283
-0.00688668
0.00146823
-0.00839008
0.0015034
-0.00994129
0.00155121
-0.0115649
0.0016236
0.00172988
-0.0132948
-0.000424222
0.000885288
-0.00129205
0.00182126
-0.00238991
0.00231602
-0.0035907
0.00255829
-0.00482139
0.00265899
-0.00604552
0.00269236
-0.00725246
0.00271034
-0.00845051
0.00274926
-0.00966261
0.00283569
0.00299153
-0.0109243
-0.00035457
0.00123986
-0.00107078
0.00253747
-0.00194726
0.00319249
-0.00285808
0.00346911
-0.00372446
0.00352537
-0.00450019
0.00346809
-0.00516401
0.00337416
-0.00571638
0.00330163
-0.00617814
0.00329746
0.00340266
-0.00658928
-0.000268299
0.00150816
-0.000786593
0.00305576
-0.00137059
0.00377649
-0.00189678
0.0039953
-0.00228091
0.0039095
-0.00246597
0.00365315
-0.00241731
0.00332549
-0.00212398
0.0030083
-0.00160628
0.00277975
0.00272555
-0.000929159
-0.000178357
0.00168651
-0.00047601
0.00335342
-0.000725471
0.00402595
-0.000807733
0.00407756
-0.000635649
0.00373741
-0.000143207
0.00316071
0.000717784
0.0024645
0.00197297
0.00175312
0.00361007
0.00114265
0.000791978
0.00554364
-9.32802e-05
0.00177979
-0.000161852
0.00342199
-5.07066e-05
0.00391481
0.000353446
0.00367341
0.00113752
0.00295334
0.00237185
0.00192639
0.00411425
0.000722101
0.00640519
-0.000537825
0.00924758
-0.00169974
-0.00250018
0.0125397
-1.45615e-05
0.00179436
0.000153861
0.00325357
0.000654959
0.00341371
0.00159825
0.00273012
0.00306762
0.00148396
0.00513103
-0.000137026
0.00784584
-0.0019927
0.0112576
-0.00394961
0.0153844
-0.00582648
-0.00725273
0.0201369
6.43841e-05
0.00172997
0.000489451
0.0028285
0.00143013
0.00247304
0.00299539
0.00116486
0.00526476
-0.00078541
0.00829471
-0.00316697
0.0121233
-0.00582132
0.0167755
-0.00860182
0.0222623
-0.0113132
-0.0135275
0.028537
0.000152605
0.00157737
0.000874132
0.00210697
0.00233049
0.00101668
0.00463316
-0.0011378
0.00785344
-0.0040057
0.0120232
-0.00733671
0.0171356
-0.0109338
0.0231528
-0.014619
0.0300225
-0.0181829
-0.0212356
0.0377307
0.00026136
0.00133687
0.00340334
0.00656902
0.0108838
0.0163365
0.0228554
0.0303121
0.0385184
0.0472927
-0.0144531
0.0011583
-0.0156223
0.00116927
-0.0167607
0.00113841
-0.0178458
0.00108506
-0.0188595
0.00101367
-0.0197841
0.000924653
-0.0206022
0.000818044
-0.021296
0.000693785
-0.0218477
0.00055175
-0.0222396
0.000391864
-0.0224534
0.000213804
-0.0224622
8.77876e-06
-0.0222727
-0.000189441
-0.0218622
-0.000410523
-0.0212205
-0.000641657
-0.0203449
-0.000875651
-0.0192447
-0.00110023
-0.0179451
-0.00129953
-0.0164781
-0.00146707
-0.00159322
-0.0119372
0.0021712
-0.0129671
0.00219921
-0.0139738
0.00214508
-0.0149372
0.00204845
-0.0158409
0.00191744
-0.0166684
0.00175211
-0.0174028
0.0015525
-0.0180278
0.00131876
-0.0185269
0.00105085
-0.0188839
0.000748864
-0.0190826
0.000412535
-0.0190998
2.59147e-05
-0.0189392
-0.000349997
-0.0185811
-0.000768638
-0.0180156
-0.00120711
-0.017238
-0.00165328
-0.0162517
-0.0020866
-0.0150739
-0.00247728
-0.013737
-0.00280393
-0.00303637
-0.00733954
0.00292146
-0.00811311
0.00297279
-0.00887399
0.00290596
-0.00960656
0.00278102
-0.010298
0.00260891
-0.010934
0.00238805
-0.0114995
0.00211808
-0.0119804
0.00179958
-0.0123626
0.00143304
-0.0126326
0.00101894
-0.0127778
0.000557657
-0.0127806
2.87102e-05
-0.0126419
-0.000488676
-0.0123463
-0.00106419
-0.011886
-0.00166741
-0.0112548
-0.00228447
-0.01045
-0.00289138
-0.00947891
-0.00344841
-0.00836596
-0.00391689
-0.00427903
-0.00132079
0.0033131
-0.00176436
0.00341635
-0.00220352
0.00334512
-0.00262356
0.00320106
-0.00301951
0.00300486
-0.00338142
0.00274996
-0.00369733
0.00243399
-0.00395589
0.00205814
-0.00414644
0.00162359
-0.00425856
0.00113107
-0.00428148
0.000580578
-0.00421767
-3.51022e-05
-0.00404475
-0.0006616
-0.00376433
-0.00134461
-0.00337138
-0.00206036
-0.00286137
-0.00279448
-0.00222817
-0.00352458
-0.00146311
-0.00421347
-0.000573971
-0.00480603
-0.00518547
0.00550999
0.00334674
0.00541628
0.00351006
0.00533123
0.00343016
0.0052661
0.00326619
0.00521629
0.00305467
0.00518575
0.00278051
0.00518211
0.00243762
0.00521219
0.00202805
0.00528217
0.00155361
0.00539873
0.0010145
0.00557241
0.000406905
0.005786
-0.000248696
0.00606924
-0.000944839
0.00641412
-0.00168949
0.00682126
-0.00246749
0.00729111
-0.00326433
0.00782622
-0.00405968
0.00843245
-0.00481971
0.00911671
-0.00549029
-0.00598162
0.0128347
0.00305177
0.0130578
0.00328699
0.0133111
0.00317688
0.0136001
0.0029772
0.0139069
0.00274788
0.0142286
0.00245876
0.0145673
0.00209895
0.0149234
0.00167195
0.0152972
0.00117976
0.0156913
0.000620408
0.0161155
-1.72822e-05
0.0165449
-0.000678113
0.0170053
-0.00140523
0.0174899
-0.00217404
0.0179955
-0.00297315
0.0185185
-0.00378728
0.0190558
-0.00459706
0.0196107
-0.0053746
0.0201968
-0.00607636
-0.00662082
0.0206438
0.00254492
0.0211176
0.00281312
0.02167
0.00262457
0.0222804
0.00236673
0.022917
0.0021113
0.0235716
0.00180419
0.0242392
0.00143133
0.0249153
0.000995829
0.0255922
0.000502894
0.0262774
-6.47655e-05
0.026937
-0.000676901
0.0276087
-0.00134982
0.0282767
-0.00207323
0.0289392
-0.00283652
0.0295921
-0.00362608
0.0302298
-0.004425
0.0308462
-0.00521341
0.031438
-0.00596642
0.0320118
-0.00665014
-0.0072114
0.0290938
0.00198819
0.0297679
0.00213899
0.030591
0.00180148
0.0314715
0.0014862
0.0323776
0.00120524
0.0332994
0.000882346
0.0342242
0.00050655
0.0351611
5.89603e-05
0.0360716
-0.000407669
0.036962
-0.000955118
0.037843
-0.00155789
0.0387088
-0.00221562
0.0395561
-0.00292055
0.0403813
-0.00366168
0.0411796
-0.00442439
0.0419449
-0.00519033
0.0426703
-0.00593879
0.0433488
-0.00664499
0.043979
-0.00728031
-0.00782821
0.0382462
0.00147264
0.0392042
0.00118102
0.0402916
0.000714033
0.0413522
0.00042561
0.0424149
0.000142526
0.0434725
-0.000175177
0.044521
-0.000541979
0.045539
-0.000959097
0.046558
-0.00142658
0.0475602
-0.00195735
0.0485492
-0.00254691
0.0495229
-0.0031893
0.0504785
-0.00387615
0.051412
-0.00459518
0.0523183
-0.00533073
0.053191
-0.00606296
0.0540229
-0.00677073
0.054806
-0.00742811
0.0555325
-0.00800677
-0.00852421
0.0483705
0.000394812
0.0496939
-0.000142454
0.050771
-0.000363016
0.0517436
-0.000547036
0.0526901
-0.000803949
0.0536325
-0.00111756
0.0545751
-0.00148458
0.0555245
-0.00190853
0.0564898
-0.00239187
0.0574677
-0.00293527
0.0584561
-0.00353522
0.0594517
-0.00418491
0.0604502
-0.00487468
0.061446
-0.00559097
0.0624327
-0.00631745
0.0634027
-0.00703298
0.0643483
-0.00771631
0.0652608
-0.00834065
0.0661266
-0.00887254
-0.00934935
0.0705829
0.0013734
-0.0715615
0.0696958
0.000744666
0.0691414
0.000191334
0.0688377
-0.000243314
0.0687073
-0.000673554
0.0687024
-0.0011127
0.0687892
-0.00157134
0.0689413
-0.00206064
0.0691361
-0.00258661
0.0693522
-0.0031514
0.0695706
-0.0037536
0.0697737
-0.00438806
0.0699456
-0.00504659
0.0700719
-0.00571728
0.0701406
-0.00638615
0.0701422
-0.00703455
0.0700701
-0.00764421
0.0699226
-0.0081932
0.0696959
-0.00864576
-0.00904977
0.0817014
0.00188963
-0.0822176
0.080981
0.00146507
0.0802883
0.000883962
0.0797384
0.000306646
0.0793137
-0.000248854
0.0789953
-0.000794292
0.0787672
-0.00134324
0.0786107
-0.0019042
0.0785061
-0.00248198
0.0784336
-0.00307893
0.0783747
-0.00369465
0.078312
-0.00432539
0.07823
-0.00496461
0.0781151
-0.00560235
0.0779559
-0.00622695
0.0777442
-0.0068228
0.0774739
-0.00737396
0.0771455
-0.00786483
0.0767576
-0.00825787
-0.00861554
0.089697
0.00252836
-0.0903357
0.0891061
0.00205597
0.0885262
0.0014638
0.0880015
0.00083138
0.0875365
0.000216157
0.0871292
-0.000387028
0.0867729
-0.000986901
0.0864595
-0.00159082
0.0861784
-0.00220086
0.0859171
-0.00281762
0.0856625
-0.00344012
0.085402
-0.00406488
0.0851237
-0.00468624
0.084817
-0.0052957
0.0844734
-0.00588331
0.0840871
-0.00643656
0.083654
-0.00694086
0.0831771
-0.00738786
0.082656
-0.00773683
-0.00806399
0.0952213
0.00314614
-0.0958391
0.0947211
0.00255617
0.0942525
0.00193239
0.0938052
0.00127867
0.0933856
0.00063575
0.0929899
8.72369e-06
0.0926149
-0.000611914
0.0922545
-0.00123039
0.0919022
-0.00184864
0.0915507
-0.00246606
0.0911915
-0.00308097
0.0908165
-0.00368988
0.0904179
-0.00428759
0.089989
-0.00486679
0.0895243
-0.00541868
0.0890215
-0.00593371
0.0884784
-0.00639774
0.0879001
-0.00680963
0.0872875
-0.00712414
-0.00743104
0.0985964
0.00361044
-0.0990606
0.0982152
0.00293733
0.0978624
0.00228518
0.097514
0.00162709
0.0971699
0.000979793
0.0968292
0.000349498
0.0964875
-0.00027023
0.0961402
-0.000883089
0.0957822
-0.0014907
0.0954086
-0.00209238
0.0950138
-0.00268618
0.0945927
-0.00326881
0.0941406
-0.00383547
0.0936538
-0.00438007
0.0931298
-0.00489462
0.0925684
-0.00537235
0.0919698
-0.0057991
0.0913403
-0.00618013
0.0906821
-0.00646594
-0.00675812
0.100242
0.00388144
-0.100513
0.100006
0.00317367
0.09978
0.00251128
0.0995429
0.0018642
0.0992913
0.00123137
0.0990257
0.000615169
0.0987429
1.25788e-05
0.0984398
-0.000580004
0.0981125
-0.00116337
0.0977573
-0.00173726
0.0973709
-0.00229979
0.0969501
-0.00284801
0.0964923
-0.00337763
0.0959959
-0.00388366
0.0954602
-0.00435891
0.0948868
-0.00479898
0.0942774
-0.00518974
0.0936388
-0.00554153
0.0929748
-0.00580193
-0.00608067
0.100656
0.0039674
-0.100742
0.100564
0.00326558
0.100461
0.00261484
0.100332
0.00199269
0.100175
0.00138847
0.0999902
0.000800318
0.099776
0.000226775
0.0995305
-0.000334534
0.0992513
-0.000884193
0.0989361
-0.00142204
0.0985828
-0.00194644
0.0981896
-0.00245484
0.0977554
-0.00294345
0.0972801
-0.00340834
0.0967642
-0.00384303
0.0962103
-0.00424508
0.0956212
-0.00460064
0.0950033
-0.00492358
0.0943618
-0.00516044
-0.00542465
0.100299
0.00390185
-0.100234
0.10033
0.00323519
0.10033
0.00261469
0.100295
0.00202809
0.100221
0.00146179
0.10011
0.000911086
0.0999624
0.000374864
0.0997758
-0.000147915
0.0995493
-0.000657763
0.0992818
-0.00115446
0.098972
-0.00163665
0.0986193
-0.0021022
0.0982237
-0.00254781
0.0977858
-0.00297041
0.097307
-0.00336428
0.0967904
-0.00372842
0.0962394
-0.00404966
0.0956596
-0.00434381
0.0950575
-0.00455834
-0.00480604
0.0995275
0.00372747
-0.0993532
0.09965
0.0031127
0.0997297
0.00253507
0.0997666
0.00199114
0.0997602
0.00146819
0.0997109
0.000960347
0.0996193
0.000466491
0.099485
-1.36498e-05
0.0993076
-0.000480322
0.0990864
-0.000933302
0.0988212
-0.00137145
0.0985121
-0.00179303
0.0981595
-0.0021952
0.0977647
-0.00257563
0.0973297
-0.00292933
0.0968576
-0.00325628
0.0963523
-0.00354432
0.0958183
-0.00380988
0.095263
-0.00400303
-0.00423224
0.0985798
0.00348185
-0.0983342
0.0987665
0.00292605
0.0989031
0.0023985
0.0989927
0.00190155
0.099036
0.00142486
0.0990338
0.000962568
0.0989867
0.000513588
0.098895
7.80137e-05
0.0987588
-0.000344129
0.0985781
-0.000752614
0.0983532
-0.00114649
0.0980845
-0.00152434
0.0977731
-0.00188379
0.0974205
-0.00222307
0.0970291
-0.0025379
0.0966017
-0.0028289
0.0961425
-0.00308511
0.0956552
-0.00332261
0.0951474
-0.00349523
-0.00370444
0.0975991
0.00319175
-0.097309
0.0978285
0.00269665
0.0980043
0.00222262
0.0981309
0.001775
0.0982098
0.00134594
0.098242
0.000930332
0.0982285
0.000527172
0.0981697
0.000136732
0.0980664
-0.000240748
0.0979188
-0.000605052
0.0977277
-0.000955363
0.0974939
-0.00129055
0.0972187
-0.00160866
0.096904
-0.00190833
0.0965521
-0.00218599
0.0961658
-0.00244257
0.0957491
-0.00266845
0.0953052
-0.00287869
0.0948416
-0.00303163
-0.0032199
0.0966613
0.00287413
-0.0963437
0.0969189
0.00243911
0.0971217
0.00201978
0.0972741
0.00162255
0.0973784
0.00124171
0.0974356
0.000873077
0.0974469
0.000515862
0.0974132
0.000170433
0.0973354
-0.000162882
0.0972142
-0.00048383
0.0970505
-0.000791727
0.0968456
-0.00108566
0.096601
-0.00136404
0.0963185
-0.00162585
0.0960007
-0.00186812
0.09565
-0.00209193
0.0952706
-0.00228899
0.0948648
-0.00247296
0.0944402
-0.002607
-0.00277392
0.095803
0.00253908
-0.095468
0.0960795
0.00216268
0.0963012
0.00179801
0.0964723
0.0014515
0.096595
0.001119
0.0966708
0.000797274
0.0967009
0.000485782
0.0966864
0.000184926
0.0966284
-0.000104919
0.0965281
-0.000383487
0.0963866
-0.0006502
0.0962052
-0.000904327
0.0959858
-0.00114458
0.0957301
-0.0013702
0.0954408
-0.00157876
0.0951202
-0.00177137
0.0947722
-0.00194101
0.094399
-0.00209972
0.0940076
-0.00221558
-0.00236108
0.0950402
0.00219247
-0.0946935
0.0953298
0.00187303
0.0955654
0.00156244
0.0957504
0.0012665
0.0958871
0.000982235
0.0959772
0.000707212
0.0960219
0.000441097
0.0960225
0.000184307
0.0959804
-6.2774e-05
0.0958968
-0.000299887
0.0957731
-0.000526542
0.0956109
-0.000742154
0.095412
-0.000945696
0.0951784
-0.00113661
0.0949126
-0.00131293
0.094617
-0.00147572
0.0942951
-0.00161914
0.0939489
-0.00175353
0.0935852
-0.00185183
-0.00197605
0.0943794
0.00183776
-0.0940247
0.0946787
0.00157374
0.0949248
0.00131641
0.0951206
0.00107069
0.0952684
0.000834422
0.0953698
0.000605821
0.0954262
0.000384718
0.0954389
0.000171517
0.0954096
-3.34318e-05
0.0953396
-0.000229878
0.0952305
-0.000417421
0.0950839
-0.000595598
0.0949018
-0.000763599
0.0946862
-0.000921019
0.0944396
-0.00106631
0.0941643
-0.00120041
0.0938638
-0.00131861
0.0935397
-0.00142947
0.0931986
-0.00151073
-0.00161386
0.0938242
0.00147711
-0.0934636
0.0941308
0.00126717
0.0943849
0.00106227
0.0945893
0.000866332
0.0947459
0.000677775
0.0948565
0.000495311
0.0949223
0.000318884
0.0949449
0.000148854
0.094926
-1.44803e-05
0.094867
-0.000170898
0.0947697
-0.00032008
0.0946357
-0.000461671
0.0944672
-0.000595053
0.0942661
-0.00071994
0.094035
-0.000835143
0.093776
-0.000941456
0.0934926
-0.00103517
0.0931863
-0.00112318
0.0928633
-0.00118775
-0.00127002
0.093377
0.00111197
-0.0930119
0.0936891
0.000955046
0.0939495
0.000801866
0.0941606
0.000655293
0.0943242
0.000514167
0.0944419
0.000377586
0.0945152
0.000245551
0.0945457
0.000118353
0.094535
-3.77091e-06
0.0944848
-0.000120649
0.0943967
-0.000232041
0.0942728
-0.000337691
0.0941148
-0.000437145
0.0939251
-0.000530219
0.093706
-0.000616031
0.0934598
-0.000695236
0.0931896
-0.000765024
0.0928972
-0.000830691
0.0925882
-0.000878825
-0.000940456
0.0930403
0.000743492
-0.0926718
0.0933565
0.00063881
0.0936215
0.000536853
0.0938375
0.000439338
0.0940062
0.000345417
0.0941293
0.000254509
0.0942082
0.000166643
0.0942446
8.20221e-05
0.09424
8.02303e-07
0.0941962
-7.68995e-05
0.0941151
-0.000150918
0.0939985
-0.000221091
0.0938485
-0.000287113
0.0936671
-0.000348891
0.0934569
-0.000405807
0.0932201
-0.000458393
0.0929597
-0.00050463
0.0926773
-0.00054835
0.0923787
-0.000580178
-0.000621395
0.0928165
0.000372747
-0.0924458
0.0931354
0.000319896
0.0934033
0.000268976
0.0936223
0.000220337
0.0937943
0.000173443
0.0939208
0.000128034
0.0940033
8.41539e-05
0.0940434
4.19072e-05
0.0940428
1.36729e-06
0.0940033
-3.74125e-05
0.0939267
-7.43419e-05
0.093815
-0.000109352
0.0936702
-0.000142269
0.0934944
-0.000173094
0.09329
-0.000201424
0.0930593
-0.000227736
0.0928053
-0.000250584
0.0925297
-0.000272797
0.0922374
-0.00028787
-0.000309848
0.092706
-0.0923333
0.0930259
0.0932949
0.0935152
0.0936887
0.0938167
0.0939009
0.0939428
0.0939441
0.0939067
0.0938324
0.093723
0.0935808
0.0934077
0.0932062
0.0929785
0.0927279
0.0924551
0.0921673
0.0767743
0.0237618
-0.0750094
0.0787299
0.0308641
0.0807914
0.0379956
0.082789
0.0450274
0.0844483
0.0517011
0.0853161
0.0577185
0.0847953
0.0625224
0.0823181
0.06553
0.0771417
0.0664982
0.0630931
0.0757391
0.0220043
-0.0739817
0.0777695
0.0288337
0.0800282
0.0357369
0.0824151
0.0426405
0.0847574
0.0493587
0.0867739
0.055702
0.0879765
0.0613198
0.0880621
0.0654443
0.0858694
0.0686909
0.0667449
0.0746927
0.020302
-0.0729904
0.0767242
0.0268022
0.0790645
0.0333966
0.0816674
0.0400376
0.0844281
0.046598
0.0872216
0.0529085
0.0896502
0.0588913
0.0915441
0.0635504
0.0918517
0.0683834
0.0682609
0.0737131
0.018681
-0.0720921
0.0757
0.0248153
0.0780462
0.0310504
0.0807434
0.0373404
0.0837212
0.0436203
0.0869428
0.0496869
0.0901019
0.0557322
0.0930602
0.060592
0.0952902
0.0661534
0.067712
0.072828
0.0171463
-0.0712933
0.0747484
0.0228949
0.0770544
0.0287443
0.0797575
0.0346373
0.0828071
0.0405707
0.0861989
0.0462951
0.0897575
0.0521737
0.0933189
0.0570306
0.0968257
0.0626465
0.0654771
0.0720342
0.0156914
-0.0705792
0.0738822
0.0210469
0.0761264
0.0265001
0.078784
0.0319796
0.0818267
0.037528
0.0852512
0.0428706
0.0890109
0.048414
0.0928916
0.0531499
0.097088
0.05845
0.0620517
0.0713186
0.0143063
-0.0699335
0.0730974
0.0192681
0.0752756
0.0243219
0.077868
0.0293872
0.0808697
0.0345263
0.0842635
0.0394768
0.0880847
0.0445928
0.0921023
0.0491323
0.0965815
0.0539709
0.0578908
0.0706691
0.0129817
-0.0693445
0.0723855
0.0175516
0.0745018
0.0222056
0.0770268
0.0268622
0.0799724
0.0315808
0.0833068
0.0361423
0.0870989
0.0408007
0.0911503
0.045081
0.0956881
0.049433
0.0533451
0.0700791
0.0117107
-0.0688081
0.0717396
0.0158912
0.0737992
0.020146
0.0762607
0.0244007
0.0791435
0.028698
0.082411
0.0328749
0.0861317
0.0370799
0.0901641
0.0410486
0.0946565
0.0449406
0.0486484
0.0695437
0.0104876
-0.0683206
0.0711538
0.0142811
0.0731614
0.0181384
0.0755653
0.0219968
0.0783852
0.0258781
0.0815887
0.0296714
0.0852273
0.0334413
0.0892128
0.0370631
0.093621
0.0405324
0.0439352
0.0690598
0.00930759
-0.0678798
0.0706245
0.0127164
0.0725843
0.0161786
0.0749366
0.0196445
0.0776974
0.0231173
0.0808424
0.0265263
0.0844022
0.0298816
0.0883273
0.033138
0.0926442
0.0362155
0.0392703
0.0686258
0.00816655
-0.0674848
0.0701497
0.0111925
0.0720658
0.0142625
0.0743719
0.0173384
0.0770788
0.0204104
0.0801702
0.0234349
0.0836594
0.0263924
0.0875204
0.029277
0.0917521
0.0319838
0.0346788
0.0682409
0.00706055
-0.0671349
0.0697282
0.00970528
0.0716046
0.012386
0.0738692
0.0150738
0.076528
0.0177517
0.0795704
0.0203925
0.0829981
0.0229647
0.0867976
0.0254775
0.0909538
0.0278275
0.0301646
0.0679044
0.00598589
-0.0668298
0.0693589
0.0082508
0.0711999
0.010545
0.0734275
0.0128462
0.0760439
0.0151353
0.0790421
0.0173943
0.0824172
0.0195896
0.0861607
0.021734
0.0902517
0.0237366
0.0257227
0.0676158
0.00493903
-0.0665689
0.0690412
0.00682531
0.0708511
0.00873516
0.073046
0.0106514
0.0756258
0.0125555
0.0785852
0.0144349
0.0819158
0.016259
0.0856105
0.0180394
0.0896461
0.019701
0.0213441
0.0673742
0.0039165
-0.0663517
0.0687744
0.00542511
0.0705574
0.00695222
0.0727241
0.00848465
0.0752731
0.0100065
0.0781996
0.0115084
0.0814935
0.0129651
0.0851473
0.0143855
0.0891374
0.0157108
0.017018
0.0671791
0.00291494
-0.0661776
0.0685577
0.00404649
0.0703181
0.00519186
0.0724614
0.00634134
0.0749854
0.00748248
0.0778853
0.00860846
0.0811503
0.00970014
0.084772
0.0107638
0.0887267
0.0117561
0.0127328
0.0670298
0.00193094
-0.0660457
0.0683906
0.00268562
0.0701329
0.00344957
0.0722579
0.00421635
0.0747629
0.00497746
0.077643
0.00572836
0.0808869
0.00645625
0.0844857
0.00716506
0.0884154
0.00782639
0.00847638
0.0669263
0.000960748
-0.0659561
0.0682736
0.00133832
0.0700026
0.00172059
0.0721146
0.00210435
0.0746067
0.00248527
0.077474
0.0028611
0.0807049
0.00322534
0.08429
0.00358
0.0882055
0.00391086
0.0042361
0.0668713
-0.0659106
0.0682097
0.0699303
0.0720346
0.0745199
0.077381
0.0806063
0.0841863
0.0880972
0.0308581
0.0561762
-0.0524564
-0.0345779
0.0268071
0.0573207
-0.0532698
0.022662
0.0586515
-0.0545064
0.0184442
0.0601893
-0.0559714
0.0141761
0.0618362
-0.0575682
0.00995028
0.0632922
-0.0590664
0.00598749
0.0636276
-0.0596648
0.00268684
0.0605862
-0.0572856
0.000567578
0.0498295
-0.0477102
0.0245551
-0.0239875
0.0263547
0.0597995
-0.029978
0.0226611
0.0610143
0.0188893
0.0624233
0.0150638
0.0640148
0.011225
0.065675
0.0074922
0.0670251
0.00412083
0.066999
0.00152082
0.0631863
0.000121545
0.0512288
0.0246767
0.021721
0.0631069
-0.0250284
0.0183431
0.0643923
0.0149181
0.0658482
0.0114772
0.0674557
0.00807944
0.0690728
0.00487385
0.0702306
0.00215259
0.0697202
0.000278234
0.0650606
-0.000330645
0.0518376
0.024346
0.0167856
0.066094
-0.0197727
0.0137528
0.0674251
0.0106995
0.0689016
0.00766936
0.0704858
0.00474791
0.0719942
0.00211311
0.0728654
6.74393e-05
0.0717659
-0.000920402
0.0660484
-0.000755472
0.0516727
0.0235905
0.0115422
0.0687435
-0.0141917
0.00887604
0.0700913
0.00622342
0.0715542
0.00364235
0.0730669
0.00124889
0.0743877
-0.000734437
0.0748488
-0.00196154
0.072993
-0.00211619
0.0662031
-0.00115602
0.0507125
0.0224345
0.00599929
0.0710277
-0.00828354
0.00372242
0.0723681
0.00150203
0.0737746
-0.000587867
0.0751568
-0.00239808
0.0761979
-0.00366925
0.0761199
-0.00405556
0.0733793
-0.00327948
0.065427
-0.00151797
0.048951
0.0209166
0.000160617
0.0729538
-0.00208667
-0.00169296
0.0742217
-0.00344457
0.0755262
-0.00499471
0.0767069
-0.00615522
0.0773584
-0.00663592
0.0766006
-0.0060979
0.0728413
-0.00436273
0.0636919
-0.00182581
0.0464141
0.0190908
-0.00595197
0.0744252
0.00448054
-0.00734741
0.0756171
-0.00858536
0.0767641
-0.00953123
0.0776528
-0.00995973
0.0777869
-0.00955962
0.0762005
-0.00802778
0.0713094
-0.00531982
0.0609839
-0.00206446
0.0431588
0.0170263
-0.0123136
0.0754455
0.0112933
-0.0132057
0.0765092
-0.0138678
0.0774262
-0.0141278
0.0779128
-0.0137264
0.0773855
-0.0123509
0.074825
-0.00976861
0.0687272
-0.00610461
0.0573199
-0.0022226
0.0392767
0.0148037
-0.0188569
0.0183244
-0.0191959
-0.0192066
-0.0186811
-0.0173392
-0.0148967
-0.0112329
-0.00667345
-0.0022937
0.0540176
0.00576782
-0.0597854
0.0481182
0.00589936
0.042068
0.00605025
0.035846
0.00622199
0.0294258
0.00642018
0.0227873
0.00663855
0.015966
0.00682125
0.00919857
0.00676745
0.00324864
0.00594993
0.00324864
0.053555
0.0114913
-0.0592785
0.0476985
0.0117559
0.0416907
0.012058
0.0355116
0.0124011
0.0291355
0.0127963
0.0225435
0.0132306
0.015773
0.0135918
0.00906796
0.0134725
0.0032045
0.0118134
0.00645314
0.0526407
0.0171309
-0.0582803
0.0468668
0.0175298
0.0409417
0.0179831
0.0348462
0.0184967
0.0285561
0.0190863
0.0220562
0.0197304
0.0153914
0.0202566
0.00881361
0.0200502
0.00309061
0.0175364
0.00954376
0.0512867
0.0226482
-0.056804
0.0456332
0.0231832
0.0398289
0.0237874
0.0338559
0.0244697
0.0276928
0.0252494
0.0213298
0.0260935
0.0148219
0.0267645
0.00843371
0.0264384
0.00292661
0.0230435
0.0124704
0.0495132
0.0280095
-0.0548745
0.0440134
0.028683
0.0383639
0.0294369
0.0325493
0.0302842
0.0265517
0.031247
0.0203685
0.0322767
0.0140687
0.0330643
0.00793278
0.0325744
0.00271241
0.0282639
0.0151828
0.0473453
0.0331879
-0.0525236
0.0420261
0.0340022
0.0365601
0.034903
0.0309358
0.0359085
0.0251396
0.0370432
0.0191777
0.0382386
0.0131364
0.0391056
0.00731485
0.0383959
0.00245024
0.0331285
0.017633
0.0448097
0.0381663
-0.0497882
0.0396889
0.0391231
0.0344295
0.0401623
0.0290243
0.0413138
0.0234629
0.0426046
0.0177625
0.0439389
0.0120298
0.0448383
0.00658483
0.0438409
0.00214343
0.0375699
0.0197765
0.0419438
0.0429454
-0.046723
0.0370208
0.0440461
0.0319849
0.0451982
0.0268242
0.0464745
0.0215285
0.0479003
0.0161287
0.0493388
0.010755
0.0502119
0.00574886
0.0488471
0.0017962
0.0415225
0.0215727
0.0387061
0.0476056
-0.0433662
0.0339751
0.0487771
0.0292002
0.049973
0.0243203
0.0513545
0.0193285
0.052892
0.014275
0.0543924
0.00931593
0.0551709
0.00481339
0.0533496
0.00141338
0.0449225
0.022986
0.0352123
-0.040063
0.0307196
0.0261862
0.0215693
0.0168931
0.012219
0.00772516
0.0037892
0.0010015
0.0710688
-0.000358113
0.0713682
-0.000299395
0.071608
-0.000239785
0.071786
-0.000178021
0.0718991
-0.000113126
0.071943
-4.38733e-05
0.0719126
3.03626e-05
0.0718036
0.000109008
0.0716083
0.000195376
0.071318
0.000290246
0.0709229
0.000395102
0.0704112
0.000511753
0.0697688
0.000642319
0.0689795
0.000789297
0.0680239
0.000955648
0.066879
0.00114489
0.0655178
0.00136123
0.0639081
0.00160972
0.0620118
0.00189625
0.00222639
0.0710444
-0.000691775
0.0713191
-0.000574114
0.0715338
-0.000454537
0.0716865
-0.000330679
0.0717739
-0.000200533
0.0717914
-6.13908e-05
0.0717358
8.59407e-05
0.071601
0.000243873
0.0713796
0.000416713
0.0710634
0.000606465
0.0706424
0.000816146
0.0701048
0.00104937
0.0694367
0.00131038
0.0686218
0.00160415
0.0676409
0.00193663
0.0664709
0.00231484
0.0650849
0.00274721
0.0634508
0.00324389
0.0615303
0.00381676
0.00447818
0.0709958
-0.000976897
0.0712212
-0.000799485
0.071386
-0.000619312
0.0714883
-0.000432977
0.0715253
-0.000237525
0.0714901
-2.62496e-05
0.0713841
0.00019195
0.0711979
0.000430101
0.070925
0.00068958
0.0705573
0.000974219
0.0700848
0.00128865
0.0694958
0.00163829
0.0687767
0.00202947
0.0679112
0.00246966
0.0668801
0.00296775
0.0656607
0.00353426
0.0642261
0.00418181
0.0625444
0.00492557
0.0605779
0.00578323
0.00677582
0.0709234
-0.00118956
0.0710753
-0.000951393
0.0711656
-0.000709689
0.0711925
-0.000459878
0.0711526
-0.000197606
0.0710448
8.1569e-05
0.0708621
0.000374625
0.0705995
0.000692762
0.0702501
0.00103896
0.0698058
0.00141849
0.069257
0.00183753
0.068592
0.00230329
0.0677972
0.0028242
0.0668567
0.0034102
0.0657514
0.00407304
0.0644589
0.00482673
0.0629528
0.00568797
0.0612014
0.00667694
0.0591677
0.00781687
0.00913959
0.0708276
-0.00130644
0.0708826
-0.00100644
0.0708752
-0.000702309
0.0708039
-0.000388513
0.0706637
-5.74695e-05
0.0704574
0.000287962
0.0701746
0.000657389
0.0698117
0.00105568
0.0693619
0.00148869
0.0688173
0.00196309
0.0681683
0.00248656
0.0674035
0.00306808
0.0665096
0.00371813
0.0654708
0.00444904
0.0642684
0.00527539
0.0628806
0.00621453
0.0612814
0.00728716
0.05944
0.00851831
0.0573205
0.00993645
0.0115856
0.0707092
-0.00130491
0.0706448
-0.000942069
0.0705169
-0.000574391
0.0703234
-0.000195037
0.0700645
0.000201402
0.0697345
0.00061801
0.0693291
0.00106276
0.0688432
0.00154156
0.0682704
0.00206155
0.0676027
0.0026308
0.0668307
0.0032585
0.0659435
0.00395531
0.064928
0.00473368
0.0637688
0.00560822
0.062448
0.00659619
0.0609444
0.00771814
0.059233
0.00899857
0.057284
0.0104672
0.0550631
0.0121574
0.014125
0.070569
-0.00116321
0.0703638
-0.000736897
0.0700944
-0.000304929
0.069759
0.000140298
0.0693571
0.000603362
0.0688833
0.00109179
0.068334
0.00161206
0.0677039
0.00217164
0.0669866
0.00277885
0.0661744
0.003443
0.0652582
0.00417473
0.0642272
0.00498631
0.0630689
0.00589197
0.0617687
0.0069084
0.0603096
0.00805525
0.0586718
0.00935594
0.056832
0.0108384
0.0547622
0.0125371
0.0524293
0.0144903
0.0167662
0.070408
-0.000860537
0.0700418
-0.0003707
0.0696107
0.000126197
0.0691141
0.000636929
0.0685487
0.00116876
0.0679115
0.00172896
0.0671983
0.00232523
0.066404
0.002966
0.0655221
0.00366067
0.0645454
0.00441976
0.0634649
0.0052552
0.0622705
0.00618069
0.0609504
0.00721206
0.0594911
0.00836776
0.0578769
0.00966942
0.05609
0.0111429
0.0541098
0.0128185
0.0519113
0.0147356
0.0494657
0.0169359
0.0195089
0.0702277
-0.000377531
0.0696818
0.000175152
0.0690713
0.000736693
0.0683939
0.00131436
0.0676472
0.00191543
0.0668281
0.00254812
0.0659322
0.00322113
0.0649544
0.00394385
0.0638884
0.00472661
0.0627272
0.00558095
0.0614626
0.00651986
0.0600852
0.00755805
0.0585849
0.00871238
0.0569503
0.0100023
0.0551691
0.0114506
0.0532272
0.0130848
0.0511091
0.0149366
0.0487893
0.0170554
0.0462476
0.0194776
0.0223902
0.0700307
0.000302444
0.0692906
0.000915237
0.068485
0.00154229
0.0676123
0.00218714
0.0666699
0.00285774
0.0656547
0.00356339
0.064562
0.00431379
0.0633866
0.00511927
0.0621221
0.00599109
0.0607613
0.00694173
0.0592962
0.00798496
0.0577182
0.00913608
0.0560185