/*--------------------------------*- C++ -*----------------------------------*\
| =========                 |                                                 |
| \\      /  F ield         | OpenFOAM: The Open Source CFD Toolbox           |
|  \\    /   O peration     | Version:  4.1                                   |
|   \\  /    A nd           | Web:      www.OpenFOAM.org                      |
|    \\/     M anipulation  |                                                 |
\*---------------------------------------------------------------------------*/
FoamFile
{
    version     2.0;
    format      ascii;
    class       surfaceScalarField;
    location    "5";
    object      phi;
}
// * * * * * * * * * * * * * * * * * * * * * * * * * * * * * * * * * * * * * //

dimensions      [0 3 -1 0 0 0 0];

internalField   nonuniform List<scalar> 
7430
(
-0.000390953
0.00214827
-0.00175732
0.000193849
0.00404337
-0.00462817
0.00228287
0.00315588
-0.0052449
0.00655615
-0.000758142
-0.00351514
0.0136657
-0.00743958
0.000330016
0.0238465
-0.0161381
0.00595734
0.0363102
-0.0251713
0.0127076
0.0502767
-0.0340989
0.0201324
0.0648556
-0.0422586
0.0276796
-0.047669
0.036086
0.0764387
-0.000640044
0.00278832
-0.00013597
0.00353929
0.00291906
0.000100846
0.00971593
-0.00755502
0.0204149
-0.0181386
0.0336836
-0.0294068
0.0479123
-0.0394
0.0616694
-0.0478559
0.0728174
-0.0534066
-0.0574978
0.0826462
-0.000430335
0.00321865
0.000921833
0.00218713
0.00623981
-0.00521713
0.01637
-0.0176853
0.0296342
-0.0314027
0.0434991
-0.0432717
0.0561848
-0.0520857
0.0661913
-0.0578624
0.073731
-0.0609463
-0.063028
0.0792612
2.11388e-05
0.00319751
0.00293357
-0.000725302
0.0113011
-0.0135846
0.0238793
-0.0302635
0.0372668
-0.0447902
0.048977
-0.0549819
0.0579346
-0.0610433
0.0642332
-0.064161
0.068736
-0.0654491
-0.0658878
0.0715958
0.000511321
0.00268619
0.00567835
-0.00589233
0.0167834
-0.0246897
0.0296925
-0.0431726
0.0409304
-0.056028
0.0492637
-0.0633152
0.0549901
-0.0667698
0.0589192
-0.0680902
0.0617315
-0.0682614
-0.0683061
0.0641498
0.00116361
0.00152259
0.00896244
-0.0136912
0.021181
-0.0369082
0.0324179
-0.0544096
0.0407012
-0.0643113
0.0462326
-0.0688466
0.0498932
-0.0704303
0.0524195
-0.0706165
0.0544874
-0.0703292
-0.0699224
0.0561036
0.00223358
-0.000710993
0.0121249
-0.0235825
0.0234994
-0.0482827
0.0322506
-0.0631608
0.0379838
-0.0700445
0.0415528
-0.0724156
0.0438491
-0.0727265
0.0455324
-0.0722999
0.0468771
-0.0716739
-0.0710499
0.0480047
0.00363641
-0.0043474
0.0142849
-0.034231
0.0237761
-0.0577739
0.0301307
-0.0695154
0.0338875
-0.0738014
0.0360737
-0.0746018
0.0374857
-0.0741385
0.0385218
-0.073336
0.0393836
-0.0725358
-0.0718022
0.0401359
0.00502942
-0.00937682
0.0149805
-0.044182
0.0224645
-0.0652579
0.0268188
-0.0738698
0.0290985
-0.076081
0.0303282
-0.0758315
0.0310801
-0.0748904
0.0316161
-0.0738721
0.0320143
-0.072934
-0.072075
0.0322871
0.00606533
-0.0154421
0.0145363
-0.052653
0.0200829
-0.0708045
0.0228477
-0.0766346
0.024046
-0.0772793
0.0245495
-0.076335
0.0247686
-0.0751095
0.0248381
-0.0739416
0.0247926
-0.0728885
0.0246862
-0.0719686
-0.00407482
0.00407482
-0.0100991
0.00602428
-0.0165019
0.00640277
-0.0230366
0.00653474
-0.0296403
0.00660369
-0.0362369
0.00659664
-0.0427537
0.00651673
-0.0491279
0.0063742
-0.0553035
0.00617565
0.00600083
-0.0613044
-0.00336787
0.00744269
-0.00858401
0.0112404
-0.0141765
0.0119952
-0.0198036
0.0121619
-0.0253724
0.0121724
-0.0308021
0.0120264
-0.0360164
0.011731
-0.0409521
0.0113099
-0.0455763
0.0107998
0.0103031
-0.0498786
-0.00210447
0.00954715
-0.00587983
0.0150158
-0.0100502
0.0161656
-0.0141481
0.0162598
-0.0180184
0.0160428
-0.0215733
0.0155812
-0.0247438
0.0149015
-0.0274722
0.0140384
-0.0297071
0.0130347
0.0120062
-0.0314102
-0.000585723
0.0101329
-0.00251816
0.0169482
-0.00491703
0.0185645
-0.00719217
0.0185349
-0.00910655
0.0179572
-0.0105551
0.0170298
-0.0114883
0.0158348
-0.0118956
0.0144457
-0.0117406
0.0128797
0.011114
-0.0108484
0.000865092
0.00926778
0.000891208
0.0169221
0.000381958
0.0190737
-2.78439e-05
0.0189447
2.86489e-05
0.0179007
0.000654715
0.0164037
0.00187929
0.0146102
0.00373394
0.012591
0.00606594
0.0105477
0.00818079
0.0089992
0.00187242
0.00739536
0.00369192
0.0151026
0.00507424
0.0176914
0.0064823
0.0175367
0.0083016
0.0160814
0.0107397
0.0139656
0.0137866
0.0115633
0.0176067
0.00877084
0.0218402
0.00631415
0.00309805
0.026923
0.00221897
0.00517639
0.00523736
0.0120842
0.00813408
0.0147947
0.0110679
0.0146028
0.0143414
0.0128079
0.0181893
0.0101176
0.022517
0.0072356
0.0277266
0.00356129
0.0329061
0.0011346
-0.00363347
0.0396377
0.00191444
0.00326194
0.00521036
0.00878831
0.00884997
0.0111551
0.0126737
0.0107791
0.016795
0.00868662
0.0213793
0.00553336
0.0263488
0.00226609
0.0323596
-0.00244955
0.0383681
-0.0048739
-0.0120045
0.0467392
0.00118574
0.0020762
0.0038446
0.00612946
0.00723571
0.00776396
0.0110465
0.00696835
0.0153024
0.00443067
0.0202173
0.000618454
0.0262748
-0.00379133
0.0335695
-0.00974431
0.0425171
-0.0138215
-0.0231103
0.0536228
0.000318877
0.00182016
0.00433923
0.00779244
0.0125531
0.0191289
0.0280452
0.0384333
0.0522914
0.0652671
-0.0653322
0.00402786
-0.0676478
0.00231559
-0.0689674
0.00131965
-0.0688536
-0.00011383
-0.0680464
-0.000807227
-0.0663912
-0.00165524
-0.0640406
-0.00235056
-0.0608198
-0.00322078
-0.056654
-0.00416579
-0.0513247
-0.00532929
-0.0446946
-0.00663016
-0.0367705
-0.00792405
-0.0277498
-0.00902075
-0.018006
-0.0097438
-0.00812169
-0.00988428
0.00151746
-0.00963915
0.0104944
-0.00897693
0.0186288
-0.00813445
0.0258488
-0.00721999
0.0321522
-0.00630334
0.0375922
-0.00544003
0.0422542
-0.004662
0.0462323
-0.00397809
0.0496187
-0.00338643
0.0524986
-0.00287988
0.0549476
-0.00244904
0.0570319
-0.00208429
0.0588087
-0.00177679
0.0603275
-0.00151879
0.061631
-0.00130352
0.0627561
-0.00112504
0.0637341
-0.000978061
0.0645919
-0.000857813
0.0653519
-0.000759949
0.0660324
-0.00068052
0.0666484
-0.000615959
0.0672114
-0.000563083
0.0677305
-0.000519099
0.0682122
-0.000481615
0.0686608
-0.000448641
0.0690794
-0.000418592
0.0694697
-0.000390271
0.0698325
-0.000362835
0.0701683
-0.000335754
0.070477
-0.000308751
0.0707588
-0.000281749
0.0710136
-0.000254808
0.0712416
-0.000228073
0.0714434
-0.00020174
0.0716194
-0.000176006
0.0717705
-0.000151076
0.0718976
-0.0001271
0.0720018
-0.000104231
0.0720844
-8.26334e-05
0.0721468
-6.23351e-05
0.0721901
-4.33738e-05
0.072216
-2.58702e-05
0.0722258
-9.78678e-06
0.0722216
4.1869e-06
0.0722045
1.70684e-05
0.072176
2.85528e-05
0.0721373
3.86785e-05
0.0720898
4.75174e-05
0.0720346
5.51664e-05
0.0719729
6.17285e-05
0.0719056
6.73218e-05
0.0718335
7.20507e-05
0.0717575
7.60357e-05
0.0716781
7.93648e-05
0.071596
8.21532e-05
0.0715115
8.44569e-05
0.0714251
8.63912e-05
0.0713372
8.79643e-05
0.0712478
8.93112e-05
0.0711575
9.03667e-05
0.0710661
9.13284e-05
0.0709741
9.20027e-05
0.0708814
9.27384e-05
0.0707883
9.30942e-05
9.37616e-05
-0.0535256
0.00767492
-0.0553784
0.00416833
-0.0562198
0.00216109
-0.0559813
-0.000352299
-0.0550169
-0.00177167
-0.0534118
-0.00326038
-0.0511879
-0.00457438
-0.048295
-0.00611373
-0.044564
-0.00789681
-0.039819
-0.0100742
-0.0338556
-0.0125936
-0.0266381
-0.0151415
-0.0183333
-0.0173256
-0.00921765
-0.0188594
3.08369e-05
-0.0191328
0.00886694
-0.0184753
0.0171253
-0.0172353
0.0245743
-0.0155835
0.0311449
-0.0137906
0.0368626
-0.012021
0.0417823
-0.0103597
0.0459847
-0.00886441
0.049559
-0.00755237
0.0525911
-0.00641857
0.0551597
-0.00544845
0.0573342
-0.00462353
0.059175
-0.00392511
0.0607345
-0.00333628
0.062058
-0.00284232
0.0631849
-0.0024304
0.0641492
-0.00208928
0.0649801
-0.00180896
0.0657026
-0.00158034
0.0663377
-0.0013951
0.0669029
-0.00124565
0.067412
-0.00112511
0.0678762
-0.0010273
0.0683039
-0.000946791
0.0687012
-0.00087891
0.0690724
-0.000819766
0.06942
-0.00076624
0.0697457
-0.00071596
0.0700501
-0.000667247
0.0703334
-0.000619029
0.0705954
-0.000570739
0.0708358
-0.000522198
0.0710545
-0.000473507
0.0712514
-0.000424936
0.0714265
-0.000376851
0.0715801
-0.000329634
0.0717127
-0.000283661
0.0718249
-0.000239276
0.0719174
-0.000196738
0.0719911
-0.000156326
0.072047
-0.000118254
0.0720862
-8.25689e-05
0.0721097
-4.94173e-05
0.0721188
-1.88219e-05
0.0721151
7.8477e-06
0.0720997
3.24947e-05
0.0720737
5.45463e-05
0.0720383
7.40574e-05
0.0719947
9.114e-05
0.0719439
0.000105963
0.0718869
0.000118712
0.0718246
0.000129603
0.0717579
0.000138829
0.0716873
0.000146621
0.0716135
0.000153141
0.071537
0.000158614
0.0714583
0.00016314
0.0713778
0.00016695
0.0712957
0.000170048
0.0712123
0.000172711
0.0711279
0.000174792
0.0710425
0.000176701
0.0709565
0.000178029
0.0708697
0.000179497
0.0707826
0.000180192
0.000181523
-0.0343435
0.0106083
-0.0357424
0.00556721
-0.0360405
0.00245917
-0.0356797
-0.000713081
-0.0345825
-0.00286886
-0.0330565
-0.00478638
-0.0310746
-0.00655627
-0.0286612
-0.00852719
-0.0256362
-0.0109218
-0.0218043
-0.0139061
-0.0169458
-0.0174522
-0.0108318
-0.0212554
-0.00360632
-0.0245512
0.00391493
-0.0263807
0.0116972
-0.0269151
0.0193589
-0.0261369
0.0264733
-0.0243498
0.0328601
-0.0219702
0.0384619
-0.0193923
0.0433151
-0.0168743
0.0474905
-0.0145351
0.0510542
-0.0124282
0.0540814
-0.0105796
0.056644
-0.00898112
0.058807
-0.00761147
0.060628
-0.0064445
0.062157
-0.0054542
0.0634381
-0.00461738
0.0645099
-0.00391404
0.0654063
-0.00332687
0.0661577
-0.00284066
0.0667904
-0.0024417
0.0673275
-0.00211737
0.0677884
-0.00185602
0.0681896
-0.00164683
0.0685444
-0.00147994
0.0688635
-0.00134643
0.0691551
-0.00123841
0.0694253
-0.00114904
0.0696781
-0.0010726
0.0699163
-0.00100447
0.0701415
-0.000941079
0.0703541
-0.000879886
0.0705543
-0.000819223
0.0707417
-0.00075817
0.0709159
-0.000696387
0.0710764
-0.000633947
0.0712226
-0.000571193
0.0713544
-0.000508604
0.0714714
-0.000446716
0.0715738
-0.000386031
0.0716616
-0.00032704
0.071735
-0.000270162
0.0717944
-0.000215716
0.0718402
-0.000164025
0.071873
-0.000115404
0.0718935
-6.99316e-05
0.0719023
-2.76037e-05
0.0719005
9.60288e-06
0.071889
4.40012e-05
0.0718686
7.49701e-05
0.0718401
0.00010252
0.0718045
0.000126755
0.0717626
0.000147876
0.0717152
0.000166115
0.0716631
0.000181754
0.0716068
0.000195047
0.0715472
0.000206309
0.0714845
0.000215759
0.0714194
0.000223715
0.0713523
0.00023031
0.0712833
0.000235877
0.071213
0.000240413
0.0711414
0.000244322
0.0710688
0.000247379
0.0709953
0.000250193
0.0709212
0.000252148
0.0708463
0.000254319
0.0707712
0.000255342
0.000257313
-0.0128874
0.0126473
-0.0141972
0.00687699
-0.0143901
0.00265209
-0.014103
-0.00100022
-0.0131608
-0.00381104
-0.0117946
-0.00615261
-0.0100681
-0.00828281
-0.00801482
-0.0105804
-0.00555079
-0.0133858
-0.00243288
-0.0170241
0.00134187
-0.0212269
0.00576103
-0.0256746
0.0110034
-0.0297936
0.0170116
-0.0323888
0.0233134
-0.033217
0.0294733
-0.0322967
0.0351888
-0.0300653
0.0403225
-0.0271039
0.0448414
-0.0239112
0.0487762
-0.0208091
0.0521937
-0.0179526
0.0551495
-0.015384
0.0576873
-0.0131173
0.0598544
-0.0111482
0.0616949
-0.00945196
0.0632484
-0.007998
0.0645504
-0.00675623
0.0656333
-0.00570022
0.0665266
-0.00480743
0.0672582
-0.00405845
0.0678537
-0.00343617
0.0683368
-0.00292481
0.0687289
-0.00250945
0.0690488
-0.00217589
0.0693127
-0.00191069
0.0695341
-0.00170136
0.0697241
-0.00153644
0.0698914
-0.00140572
0.0700426
-0.00130025
0.0701825
-0.00121248
0.0703142
-0.00113624
0.0704399
-0.00106672
0.0705604
-0.00100041
0.0706761
-0.000934939
0.0707869
-0.000868916
0.0708922
-0.000801731
0.0709916
-0.000733328
0.0710844
-0.000664033
0.0711702
-0.000594355
0.0712484
-0.000524904
0.0713186
-0.000456271
0.0713806
-0.000389013
0.0714341
-0.000323649
0.0714789
-0.000260556
0.0715152
-0.000200297
0.0715427
-0.000142921
0.0715617
-8.89122e-05
0.0715728
-3.86803e-05
0.0715757
6.71628e-06
0.0715714
4.82525e-05
0.0715603
8.60702e-05
0.0715429
0.000119935
0.0715197
0.000149901
0.0714914
0.000176167
0.0714586
0.000198969
0.0714217
0.000218616
0.0713814
0.000235389
0.071338
0.000249661
0.0712921
0.000261683
0.071244
0.000271841
0.071194
0.000280289
0.0711424
0.000287446
0.0710896
0.00029329
0.0710355
0.000298345
0.0709806
0.000302304
0.0709248
0.000305961
0.0708685
0.000308501
0.0708115
0.000311334
0.0707542
0.000312666
0.000315241
0.00745208
0.0141944
0.00628358
0.00804549
0.00564792
0.00328775
0.00544032
-0.000792623
0.00579037
-0.00416108
0.00660521
-0.00696745
0.00780206
-0.00947967
0.00934018
-0.0121185
0.0112264
-0.015272
0.013493
-0.0192907
0.0163445
-0.0240783
0.0199566
-0.0292867
0.0241451
-0.0339821
0.0287758
-0.0370195
0.0334722
-0.0379134
0.0379779
-0.0368024
0.0421499
-0.0342373
0.0459376
-0.0308916
0.0493418
-0.0273154
0.0523829
-0.0238502
0.055094
-0.0206636
0.0575132
-0.0178032
0.0596526
-0.0152567
0.0615245
-0.0130202
0.0631473
-0.0110747
0.06454
-0.00939069
0.0657214
-0.00793765
0.0667104
-0.00668923
0.0675262
-0.00562317
0.0681883
-0.0047206
0.0687171
-0.00396489
0.0691326
-0.00334031
0.0694544
-0.00283128
0.0697008
-0.00242227
0.0698881
-0.002098
0.0700305
-0.0018438
0.07014
-0.00164595
0.0702263
-0.001492
0.070297
-0.00137094
0.0703579
-0.00127336
0.0704131
-0.00119149
0.0704656
-0.00111915
0.0705169
-0.00105176
0.0705681
-0.000986104
0.0706194
-0.000920207
0.0706707
-0.000853055
0.0707217
-0.000784357
0.070772
-0.000714303
0.070821
-0.000643365
0.0708682
-0.000572121
0.0709131
-0.000501194
0.0709553
-0.000431138
0.0709941
-0.000362487
0.0710293
-0.000295755
0.0710603
-0.000231299
0.071087
-0.000169648
0.0711091
-0.000110971
0.0711262
-5.57972e-05
0.0711382
-5.25147e-06
0.0711457
4.07427e-05
0.0711485
8.32391e-05
0.0711469
0.000121569
0.0711411
0.000155711
0.0711314
0.000185836
0.0711182
0.00021215
0.0711019
0.000234954
0.0710828
0.000254522
0.0710612
0.00027126
0.0710374
0.000285424
0.0710118
0.000297449
0.0709846
0.000307486
0.070956
0.000316026
0.0709263
0.000323019
0.0708955
0.000329095
0.070864
0.000333858
0.0708317
0.000338281
0.0707988
0.000341349
0.0707654
0.000344791
0.0707316
0.000346402
0.000349534
0.026012
0.0151054
0.0248263
0.0092311
0.0236885
0.00442562
0.022749
0.000146868
0.0221874
-0.00359947
0.0221119
-0.006892
0.0225831
-0.00995082
0.0235709
-0.0131064
0.0250442
-0.0167453
0.0269694
-0.0212159
0.0294288
-0.0265378
0.0323474
-0.0322053
0.0355007
-0.0371355
0.0386715
-0.0401902
0.0416934
-0.0409353
0.0445199
-0.0396288
0.0471688
-0.0368863
0.0496717
-0.0333945
0.052049
-0.0296927
0.0542986
-0.0260999
0.0564084
-0.0227734
0.058374
-0.0197688
0.0601902
-0.0170729
0.0618376
-0.0146676
0.0633086
-0.0125457
0.0646031
-0.0106852
0.0657252
-0.00905976
0.0666821
-0.00764612
0.0674831
-0.00642418
0.0681397
-0.00537726
0.0686659
-0.00449104
0.0690772
-0.00375164
0.0693905
-0.00314456
0.0696226
-0.00265437
0.0697896
-0.00226503
0.0699062
-0.00196039
0.0699851
-0.00172487
0.0700371
-0.00154398
0.0700709
-0.00140471
0.0700933
-0.00129575
0.0701094
-0.00120765
0.0701231
-0.00113282
0.0701368
-0.00106545
0.0701521
-0.0010014
0.0701698
-0.000937975
0.0701904
-0.000873658
0.0702139
-0.000807826
0.0702401
-0.000740458
0.0702686
-0.000671909
0.0702992
-0.000602679
0.0703313
-0.00053334
0.0703646
-0.000464404
0.0703985
-0.000396392
0.0704325
-0.000329745
0.0704661
-0.000264885
0.0704987
-0.000202324
0.07053
-0.000142275
0.0705598
-8.55181e-05
0.0705865
-3.19788e-05
0.0706111
1.61479e-05
0.0706332
6.10976e-05
0.0706527
0.000102098
0.0706695
0.000138873
0.0706838
0.000171582
0.0706956
0.000200354
0.0707051
0.000225442
0.0707125
0.000247089
0.0707181
0.000265715
0.0707219
0.00028156
0.0707243
0.000295083
0.0707254
0.000306419
0.0707253
0.000316111
0.0707242
0.000324072
0.0707223
0.000331022
0.0707197
0.000336479
0.0707164
0.000341572
0.0707126
0.000345102
0.0707084
0.000349084
0.0707038
0.00035094
0.000354569
0.0402744
0.0144686
0.0396223
0.00988323
0.0384884
0.0055595
0.0372822
0.0013531
0.0363102
-0.00262745
0.0357348
-0.00631666
0.0356867
-0.00990265
0.0362289
-0.0136486
0.0373581
-0.0178746
0.0389913
-0.022849
0.0409678
-0.0285143
0.0430308
-0.0342683
0.0449098
-0.0390144
0.0464808
-0.0417612
0.0477988
-0.0422533
0.0490279
-0.0408579
0.0503134
-0.0381718
0.0517235
-0.0348046
0.0532604
-0.0312295
0.0548799
-0.0277195
0.0565199
-0.0244134
0.0581277
-0.0213766
0.0596773
-0.0186225
0.0611435
-0.0161338
0.0624992
-0.0139014
0.0637275
-0.0119134
0.0648186
-0.0101509
0.06577
-0.00859756
0.0665833
-0.00723741
0.0672633
-0.0060573
0.0678184
-0.00504616
0.0682598
-0.00419299
0.0686008
-0.00348557
0.0688563
-0.00290985
0.0690413
-0.00245006
0.0691703
-0.00208944
0.0692566
-0.00181109
0.0693114
-0.00159879
0.0693443
-0.00143767
0.0693632
-0.00131456
0.0693738
-0.00121829
0.0693807
-0.00113975
0.0693872
-0.00107187
0.0693952
-0.00100944
0.0694062
-0.000948981
0.0694209
-0.000888382
0.0694397
-0.000826624
0.0694627
-0.000763434
0.0694898
-0.000699001
0.0695208
-0.000633732
0.0695556
-0.000568113
0.0695938
-0.000502599
0.069635
-0.000437623
0.0696789
-0.000373566
0.0697248
-0.000310811
0.0697723
-0.000249822
0.0698209
-0.000190899
0.06987
-0.000134574
0.0699194
-8.14233e-05
0.0699671
-3.15366e-05
0.0700146
1.35637e-05
0.070061
5.5748e-05
0.0701062
9.36613e-05
0.07015
0.000127805
0.0701923
0.000158064
0.0702331
0.00018463
0.0702725
0.000207682
0.0703105
0.000227646
0.0703474
0.000244723
0.0703831
0.000259379
0.0704178
0.000271719
0.0704516
0.000282326
0.0704846
0.000291067
0.0705169
0.000298735
0.0705486
0.000304767
0.0705797
0.000310423
0.0706105
0.000314342
0.0706408
0.000318785
0.0706709
0.00032085
0.000324902
0.0490132
0.0121946
0.0494975
0.00939892
0.049078
0.00597897
0.0482844
0.00214673
0.0474857
-0.00182881
0.0469755
-0.00580641
0.046989
-0.00991622
0.0475846
-0.0142442
0.0486688
-0.0189587
0.0499767
-0.0241569
0.0511471
-0.0296846
0.0519058
-0.0350271
0.0521444
-0.039253
0.0519396
-0.0415564
0.0515922
-0.0419059
0.0514198
-0.0406855
0.0516062
-0.0383582
0.0521868
-0.0353852
0.0531065
-0.0321492
0.0542686
-0.0288815
0.0555698
-0.0257146
0.0569244
-0.0227313
0.0582749
-0.019973
0.0595914
-0.0174503
0.060854
-0.015164
0.0620392
-0.0130986
0.0631252
-0.0112369
0.0640985
-0.00957084
0.064951
-0.00808997
0.0656807
-0.00678702
0.0662906
-0.00565601
0.0667876
-0.00468998
0.0671822
-0.00388014
0.0674872
-0.00321485
0.0677166
-0.00267956
0.0678848
-0.00225764
0.0680052
-0.0019314
0.0680896
-0.00168323
0.0681484
-0.00149651
0.0681901
-0.00135625
0.0682214
-0.00124951
0.0682472
-0.00116559
0.0682714
-0.00109603
0.0682964
-0.0010345
0.068324
-0.000976606
0.0683553
-0.000919592
0.0683906
-0.000861985
0.0684304
-0.000803227
0.0684747
-0.000743334
0.0685236
-0.000682619
0.068577
-0.000621486
0.0686347
-0.000560337
0.0686966
-0.000499515
0.0687624
-0.000439337
0.0688317
-0.000380092
0.068904
-0.000322133
0.0689789
-0.000265791
0.0690558
-0.000211512
0.0691343
-0.000159878
0.0692139
-0.000111116
0.0692933
-6.59213e-05
0.0693727
-2.3634e-05
0.0694523
1.41005e-05
0.0695314
4.87444e-05
0.0696098
7.96464e-05
0.0696874
0.000106983
0.0697643
0.000130839
0.0698402
0.000151671
0.0699154
0.000169586
0.0699897
0.000185049
0.0700633
0.000198127
0.0701362
0.000209426
0.0702085
0.000218768
0.0702802
0.000227003
0.0703515
0.000233492
0.0704223
0.000239606
0.0704928
0.000243839
0.0705629
0.00024866
0.0706329
0.000250893
0.00025529
0.0562779
0.0095396
0.057668
0.00800882
0.0581273
0.00551965
0.057954
0.00232008
0.0577886
-0.00166347
0.057656
-0.00567379
0.0578648
-0.010125
0.0584081
-0.0147875
0.0591439
-0.0196945
0.0597645
-0.0247775
0.0598535
-0.0297737
0.0590434
-0.034217
0.0573506
-0.0375602
0.0553448
-0.0395507
0.0535691
-0.0401302
0.0523221
-0.0394385
0.0516996
-0.0377357
0.051653
-0.0353387
0.0520801
-0.0325763
0.0528536
-0.029655
0.0538525
-0.0267135
0.0549777
-0.0238566
0.0561597
-0.0211549
0.0573544
-0.018645
0.058529
-0.0163386
0.0596602
-0.0142298
0.0607318
-0.0123084
0.0617276
-0.0105667
0.0626318
-0.00899421
0.0634325
-0.00758764
0.0641238
-0.00634734
0.064706
-0.00527219
0.0651846
-0.00435869
0.065569
-0.00359929
0.0658716
-0.00298219
0.066106
-0.00249205
0.0662859
-0.00211122
0.0664238
-0.00182119
0.0665311
-0.00160383
0.0666173
-0.00144237
0.0666898
-0.00132205
0.0667546
-0.00123042
0.0668161
-0.0011575
0.0668773
-0.00109567
0.0669402
-0.0010395
0.067006
-0.00098547
0.0670756
-0.000931564
0.0671493
-0.000876887
0.0672272
-0.000821264
0.0673095
-0.00076491
0.0673962
-0.00070818
0.0674873
-0.000651433
0.0675827
-0.000594955
0.0676824
-0.00053899
0.067786
-0.000483744
0.0678933
-0.000429458
0.068004
-0.000376434
0.0681175
-0.000325013
0.0682333
-0.000275635
0.0683508
-0.000228687
0.0684695
-0.000184648
0.0685895
-0.000143574
0.0687096
-0.000105972
0.0688299
-7.16027e-05
0.0689501
-4.05674e-05
0.0690701
-1.29487e-05
0.0691897
1.11579e-05
0.0693089
3.24736e-05
0.0694276
5.08995e-05
0.0695458
6.6902e-05
0.0696634
8.04985e-05
0.0697805
9.2303e-05
0.0698972
0.000102094
0.0700134
0.000110764
0.0701293
0.000117606
0.0702448
0.000124079
0.0703601
0.000128561
0.0704751
0.00013368
0.0705899
0.000136046
0.000140708
0.0669126
0.00789405
0.0684443
0.00647712
0.0693988
0.00456515
0.0698791
0.00183979
0.069851
-0.00163532
0.0697768
-0.00559964
0.069637
-0.00998515
0.069445
-0.0145955
0.0690675
-0.019317
0.0682924
-0.0240025
0.0669243
-0.0284055
0.0648983
-0.032191
0.06238
-0.0350418
0.0596521
-0.0368228
0.057058
-0.0375361
0.0548767
-0.0372571
0.0533071
-0.0361661
0.0524275
-0.034459
0.0521255
-0.0322743
0.0522637
-0.0297932
0.0527248
-0.0271746
0.0534107
-0.0245425
0.0542432
-0.0219874
0.0551638
-0.0195656
0.0561313
-0.0173061
0.0571167
-0.0152153
0.0580952
-0.0132869
0.0590423
-0.0115138
0.0599378
-0.00988974
0.0607648
-0.00841457
0.0615094
-0.00709199
0.0621635
-0.00592628
0.0627246
-0.00491974
0.0631957
-0.0040704
0.0635844
-0.00337098
0.0639016
-0.00280917
0.0641591
-0.0023688
0.0643694
-0.00203146
0.0645438
-0.00177822
0.0646924
-0.00159092
0.0648234
-0.00145313
0.0649437
-0.00135071
0.0650583
-0.00127206
0.0651708
-0.00120816
0.0652837
-0.00115241
0.0653986
-0.00110037
0.0655164
-0.00104938
0.0656376
-0.000998098
0.0657625
-0.000946117
0.0658911
-0.000893533
0.0660236
-0.000840657
0.06616
-0.000787827
0.0663003
-0.000735307
0.0664446
-0.000683286
0.0665928
-0.000631901
0.0667446
-0.000581294
0.0668999
-0.000531687
0.0670582
-0.000483327
0.0672191
-0.000436587
0.0673823
-0.000391846
0.0675471
-0.000349467
0.0677132
-0.00030968
0.0678801
-0.000272865
0.0680476
-0.000239084
0.0682155
-0.000208446
0.0683835
-0.000180959
0.0685513
-0.000156647
0.0687189
-0.000135131
0.0688862
-0.000116414
0.0690532
-0.000100075
0.0692198
-8.61316e-05
0.0693861
-7.39666e-05
0.069552
-6.38447e-05
0.0697176
-5.48455e-05
0.069883
-4.77304e-05
0.070048
-4.0979e-05
0.0702129
-3.63011e-05
0.0703775
-3.09506e-05
0.070542
-2.8476e-05
-2.36243e-05
0.0910015
0.00887682
-0.0919843
0.0906526
0.00682602
0.0907683
0.00444945
0.0912796
0.00132849
0.0919712
-0.00232688
0.0929657
-0.00659417
0.0939465
-0.010966
0.0947485
-0.0153974
0.0951978
-0.0197663
0.0951038
-0.0239085
0.0943274
-0.0276291
0.0928608
-0.0307244
0.0908389
-0.03302
0.0884411
-0.034425
0.0858461
-0.0349411
0.083209
-0.03462
0.0806291
-0.0335862
0.078187
-0.0320169
0.0759677
-0.030055
0.074014
-0.0278394
0.0723427
-0.0255033
0.0709516
-0.0231514
0.0698219
-0.0208576
0.068925
-0.0186687
0.0682281
-0.0166092
0.0676983
-0.0146855
0.0673056
-0.0128942
0.0670218
-0.01123
0.0668217
-0.00968959
0.0666814
-0.00827433
0.0665799
-0.00699047
0.0664997
-0.00584608
0.0664277
-0.00484777
0.0663553
-0.00399793
0.0662775
-0.0032932
0.0661926
-0.00272431
0.066101
-0.00227715
0.0660041
-0.00193456
0.0659039
-0.0016781
0.0658027
-0.00148968
0.0657022
-0.00135266
0.0656041
-0.00125257
0.0655095
-0.00117744
0.0654192
-0.00111789
0.0653338
-0.00106702
0.0652536
-0.00102014
0.0651786
-0.000974421
0.065109
-0.000928431
0.0650446
-0.000881705
0.0649854
-0.00083433
0.0649313
-0.000786625
0.0648824
-0.000738935
0.0648386
-0.000691521
0.0647999
-0.000644541
0.0647661
-0.000598094
0.0647371
-0.000552259
0.0647126
-0.000507183
0.0646923
-0.000463048
0.0646758
-0.000420153
0.0646628
-0.000378818
0.0646527
-0.000339386
0.0646452
-0.000302153
0.0646398
-0.000267443
0.0646361
-0.000235385
0.0646338
-0.000206133
0.0646325
-0.000179698
0.064632
-0.000156146
0.0646321
-0.000135214
0.0646326
-0.000116901
0.0646333
-0.000100821
0.0646342
-8.70327e-05
0.0646352
-7.49387e-05
0.0646362
-6.48411e-05
0.0646372
-5.58185e-05
0.0646381
-4.86719e-05
0.064639
-4.18572e-05
0.0646398
-3.71376e-05
0.0646406
-3.17113e-05
0.0646413
-2.92126e-05
-2.42905e-05
0.10131
0.00940333
-0.101837
0.101243
0.00689335
0.101577
0.00411571
0.101857
0.00104796
0.102226
-0.00269574
0.102341
-0.00670939
0.102227
-0.0108522
0.101802
-0.0149718
0.100965
-0.0189295
0.0996383
-0.0225819
0.0977967
-0.0257875
0.0954898
-0.0284175
0.0928213
-0.0303515
0.0899184
-0.0315222
0.0869145
-0.0319372
0.0839507
-0.0316562
0.0811451
-0.0307806
0.0785747
-0.0294465
0.0762964
-0.0277768
0.0743349
-0.0258779
0.0726841
-0.0238524
0.07132
-0.0217873
0.0702099
-0.0197476
0.0693181
-0.0177769
0.0686098
-0.0159009
0.068054
-0.0141298
0.0676241
-0.0124642
0.0672958
-0.0109017
0.0670473
-0.00944118
0.0668592
-0.00808621
0.0667139
-0.00684511
0.0665964
-0.00572858
0.0664949
-0.00474624
0.0664006
-0.00390367
0.0663079
-0.00320055
0.0662138
-0.0026302
0.0661172
-0.0021805
0.0660182
-0.0018356
0.065918
-0.00157784
0.0658177
-0.00138941
0.0657188
-0.00125373
0.0656224
-0.00115616
0.0655294
-0.00108453
0.0654407
-0.0010292
0.0653568
-0.000983036
0.0652778
-0.000941157
0.0652039
-0.000900559
0.0651352
-0.000859701
0.0650715
-0.000818051
0.0650129
-0.000775669
0.0649591
-0.000732878
0.0649102
-0.000690031
0.0648661
-0.000647398
0.0648267
-0.000605132
0.0647919
-0.000563308
0.0647616
-0.000521963
0.0647356
-0.000481182
0.0647136
-0.000441096
0.0646954
-0.000401937
0.0646806
-0.000363979
0.0646687
-0.000327541
0.0646595
-0.000292912
0.0646525
-0.000260395
0.0646472
-0.000230165
0.0646435
-0.000202417
0.064641
-0.000177182
0.0646394
-0.000154551
0.0646385
-0.00013432
0.0646381
-0.000116526
0.0646381
-0.000100811
0.0646384
-8.72745e-05
0.0646388
-7.53385e-05
0.0646393
-6.53387e-05
0.0646398
-5.63596e-05
0.0646404
-4.92338e-05
0.0646409
-4.24071e-05
0.0646415
-3.76793e-05
0.064642
-3.22195e-05
0.0646425
-2.97119e-05
-2.47473e-05
0.104785
0.00962498
-0.105007
0.105075
0.00660372
0.105472
0.00371813
0.105832
0.000688283
0.105941
-0.0028046
0.105694
-0.00646249
0.105078
-0.0102365
0.104071
-0.0139648
0.102647
-0.0175055
0.100803
-0.0207379
0.0985675
-0.0235518
0.0959979
-0.0258479
0.0931873
-0.0275409
0.0902478
-0.0285827
0.0872931
-0.0289824
0.0844307
-0.0287939
0.0817464
-0.0280963
0.0792914
-0.0269915
0.0770959
-0.0255813
0.0751734
-0.0239554
0.0735186
-0.0221977
0.072115
-0.0203837
0.0709401
-0.0185727
0.0699686
-0.0168054
0.0691744
-0.0151067
0.0685323
-0.0134877
0.0680187
-0.0119506
0.0676117
-0.0104946
0.0672911
-0.00912067
0.067039
-0.00783403
0.0668388
-0.00664495
0.0666764
-0.00556621
0.06654
-0.00460982
0.0664202
-0.0037839
0.0663103
-0.00309062
0.0662057
-0.00252559
0.0661038
-0.00207858
0.0660033
-0.00173515
0.0659041
-0.00147857
0.0658063
-0.00129165
0.0657106
-0.00115804
0.0656177
-0.00106323
0.0655281
-0.00099501
0.0654426
-0.000943657
0.0653615
-0.000901904
0.065285
-0.000864721
0.0652135
-0.000828972
0.0651468
-0.000793005
0.0650849
-0.000756206
0.0650278
-0.000718588
0.0649754
-0.000680457
0.0649275
-0.000642167
0.0648841
-0.000603997
0.0648451
-0.000566105
0.0648104
-0.000528556
0.0647798
-0.000491368
0.0647532
-0.000454585
0.0647304
-0.000418297
0.0647111
-0.000382682
0.0646951
-0.00034797
0.064682
-0.000314449
0.0646715
-0.00028239
0.0646632
-0.000252093
0.0646568
-0.000223753
0.064652
-0.000197584
0.0646484
-0.000173633
0.0646459
-0.000152018
0.0646441
-0.000132584
0.064643
-0.000115401
0.0646423
-0.000100141
0.064642
-8.69372e-05
0.0646419
-7.52339e-05
0.064642
-6.53958e-05
0.0646421
-5.65184e-05
0.0646423
-4.94601e-05
0.0646426
-4.26655e-05
0.0646429
-3.79604e-05
0.0646432
-3.25004e-05
0.0646434
-2.99984e-05
-2.5021e-05
0.105029
0.00896299
-0.104367
0.105516
0.00611636
0.10592
0.00331403
0.106221
0.000387884
0.106183
-0.00276741
0.105787
-0.00606654
0.104994
-0.00944257
0.103799
-0.0127704
0.102217
-0.0159231
0.10027
-0.0187911
0.0979978
-0.0212797
0.0954582
-0.0233084
0.0927337
-0.0248163
0.0899228
-0.0257718
0.0871223
-0.026182
0.0844175
-0.0260891
0.0818764
-0.0255551
0.0795423
-0.0246575
0.0774395
-0.0234785
0.0755787
-0.0220946
0.0739579
-0.0205769
0.0725647
-0.0189905
0.0713809
-0.0173888
0.0703853
-0.0158098
0.0695556
-0.014277
0.0688698
-0.0128019
0.0683073
-0.0113881
0.067849
-0.0100363
0.0674775
-0.00874916
0.0671771
-0.00753363
0.0669335
-0.0064014
0.0667341
-0.0053668
0.0665678
-0.00444353
0.0664255
-0.00364157
0.0662999
-0.002965
0.0661856
-0.00241127
0.0660788
-0.0019718
0.0659771
-0.0016335
0.0658792
-0.00138068
0.0657845
-0.00119686
0.0656926
-0.00106621
0.0656039
-0.000974497
0.0655186
-0.000909658
0.0654369
-0.000862031
0.0653594
-0.000824334
0.0652861
-0.000791472
0.0652174
-0.000760218
0.0651532
-0.000728822
0.0650936
-0.000696587
0.0650384
-0.000663464
0.0649877
-0.000629721
0.0649412
-0.000595702
0.0648989
-0.000561687
0.0648607
-0.00052784
0.0648263
-0.00049423
0.0647958
-0.000460865
0.064769
-0.000427769
0.0647457
-0.000395001
0.0647257
-0.0003627
0.0647088
-0.000331057
0.0646947
-0.000300333
0.0646831
-0.000270781
0.0646737
-0.00024269
0.0646662
-0.000216255
0.0646603
-0.000191702
0.0646558
-0.000169094
0.0646523
-0.000148574
0.0646498
-0.00013002
0.0646479
-0.000113534
0.0646466
-9.88112e-05
0.0646456
-8.60172e-05
0.064645
-7.46186e-05
0.0646446
-6.50054e-05
0.0646444
-5.62878e-05
0.0646443
-4.93444e-05
0.0646443
-4.26266e-05
0.0646443
-3.79762e-05
0.0646443
-3.255e-05
0.0646444
-3.00707e-05
-2.51109e-05
0.10393
0.00802472
-0.102992
0.104444
0.005603
0.1048
0.00295709
0.105001
0.000187327
0.104903
-0.00266975
0.104465
-0.00562801
0.10365
-0.0086273
0.102457
-0.0115777
0.100907
-0.0143735
0.0990322
-0.0169159
0.0968747
-0.0191222
0.0944939
-0.0209275
0.0919645
-0.0222869
0.0893698
-0.0231771
0.0867892
-0.0236014
0.0842898
-0.0235897
0.0819251
-0.0231904
0.079732
-0.0224644
0.0777329
-0.0214794
0.0759397
-0.0203013
0.0743547
-0.0189919
0.0729718
-0.0176076
0.0717784
-0.0161954
0.0707584
-0.0147898