/*--------------------------------*- C++ -*----------------------------------*\
| =========                 |                                                 |
| \\      /  F ield         | OpenFOAM: The Open Source CFD Toolbox           |
|  \\    /   O peration     | Version:  4.1                                   |
|   \\  /    A nd           | Web:      www.OpenFOAM.org                      |
|    \\/     M anipulation  |                                                 |
\*---------------------------------------------------------------------------*/
FoamFile
{
    version     2.0;
    format      ascii;
    class       volVectorField;
    location    "5";
    object      U;
}
// * * * * * * * * * * * * * * * * * * * * * * * * * * * * * * * * * * * * * //

dimensions      [0 1 -1 0 0 0 0];

internalField   nonuniform List<vector> 
2000
(
(-0.015328 0.0170371 3.44885e-20)
(0.0510463 -0.00359284 0)
(0.198622 -0.0389517 5.37359e-20)
(0.399067 -0.07896 2.36708e-20)
(0.622018 -0.11544 -4.38794e-20)
(0.837089 -0.144564 -5.63153e-20)
(1.02246 -0.165458 1.81848e-20)
(1.16669 -0.18088 0)
(1.27319 -0.185969 -1.18444e-20)
(1.32943 -0.202902 0)
(-0.00338463 0.00749203 -1.70664e-20)
(0.105112 -0.0271867 1.48603e-20)
(0.306151 -0.0658159 -5.7864e-20)
(0.554649 -0.100796 -7.61188e-20)
(0.804896 -0.126981 -6.5812e-22)
(1.02187 -0.143963 1.83854e-20)
(1.18872 -0.153725 -1.71162e-20)
(1.30397 -0.159094 -1.35927e-20)
(1.37551 -0.159014 1.18444e-20)
(1.4069 -0.167496 1.67505e-20)
(0.0152504 -0.00286541 1.87032e-20)
(0.177954 -0.0491192 -1.75186e-20)
(0.437838 -0.0851009 2.91572e-20)
(0.726189 -0.109335 -1.19284e-21)
(0.985175 -0.122453 2.25428e-20)
(1.18453 -0.127841 1.9397e-20)
(1.31954 -0.129069 1.63892e-20)
(1.39983 -0.128888 1.35928e-20)
(1.44035 -0.126958 1.00742e-20)
(1.45434 -0.132296 -7.82549e-21)
(0.0419971 -0.0132965 -6.2722e-22)
(0.270321 -0.0662145 -1.8832e-20)
(0.587778 -0.0925073 0)
(0.899693 -0.102069 2.51868e-20)
(1.14711 -0.102489 -2.45305e-20)
(1.31463 -0.0993155 0)
(1.41276 -0.0958946 0)
(1.46086 -0.0936357 0)
(1.47781 -0.0917652 -1.00746e-20)
(1.47481 -0.0960499 1.38716e-20)
(0.0778578 -0.0225437 4.46487e-20)
(0.380454 -0.0746148 -1.09064e-22)
(0.746003 -0.0848582 1.72346e-20)
(1.06124 -0.0790062 1.36447e-20)
(1.2809 -0.0697481 1.1599e-20)
(1.41027 -0.0620988 9.10629e-21)
(1.4736 -0.0576014 0)
(1.49593 -0.0559309 5.22163e-21)
(1.49596 -0.0560973 -1.84246e-20)
(1.48557 -0.0606399 2.31929e-20)
(0.123201 -0.028894 -6.99224e-20)
(0.503592 -0.0705695 1.44065e-21)
(0.90088 -0.0609986 -3.38487e-20)
(1.20075 -0.042079 2.98416e-20)
(1.38348 -0.0274379 -3.25907e-20)
(1.47506 -0.0191917 1.06012e-20)
(1.50931 -0.0163308 0)
(1.51288 -0.0170188 -5.22194e-21)
(1.50266 -0.019776 3.78544e-21)
(1.48712 -0.024934 6.27952e-21)
(0.177408 -0.0303486 0)
(0.63233 -0.0514803 0)
(1.04217 -0.0217857 -1.6857e-20)
(1.31319 0.00591415 1.5693e-20)
(1.45628 0.0215613 -9.90738e-21)
(1.51444 0.0272633 9.30171e-21)
(1.52635 0.0265992 1.00914e-20)
(1.51736 0.0225134 -9.53878e-21)
(1.50108 0.0167284 -3.97444e-21)
(1.48359 0.0103151 1.97132e-21)
(0.238655 -0.0249566 1.3249e-20)
(0.758025 -0.016618 0)
(1.16282 0.0305575 -7.66164e-21)
(1.39745 0.0620665 2.81098e-20)
(1.50277 0.0749023 -1.66128e-20)
(1.53358 0.0757723 0)
(1.52948 0.0704154 0)
(1.51269 0.0623567 0)
(1.49341 0.0534843 -1.8381e-21)
(1.47506 0.0454668 1.74717e-21)
(0.303943 -0.0111822 -6.87105e-21)
(0.872614 0.032826 -3.50535e-22)
(1.25891 0.0931007 -9.04478e-21)
(1.45473 0.123705 3.13244e-21)
(1.52678 0.130708 3.07741e-21)
(1.53657 0.125219 3.66017e-21)
(1.5218 0.114496 0)
(1.50071 0.10218 -2.37621e-22)
(1.48029 0.0901519 4.32391e-22)
(1.46204 0.0799603 -3.04198e-22)
(0.369421 0.0117645 0)
(0.969972 0.0942938 -5.62318e-21)
(1.32895 0.162697 0)
(1.48723 0.188444 -1.87665e-21)
(1.53172 0.187417 -1.72625e-21)
(1.52635 0.174651 -1.45862e-21)
(1.50509 0.158222 0)
(1.48218 0.141511 2.37638e-22)
(1.46195 0.1263 -1.12341e-22)
(1.44448 0.113561 -6.66238e-22)
(-0.00906937 0.00820937 0)
(-0.0337799 0.0139525 -2.48368e-21)
(-0.0657266 0.0145934 0)
(-0.0928919 0.0128232 -3.19417e-21)
(-0.112836 0.00970473 -9.91339e-22)
(-0.125113 0.00573456 1.75526e-21)
(-0.129618 0.0012471 -1.65299e-21)
(-0.126618 -0.00341444 1.4701e-21)
(-0.1169 -0.00784051 7.31187e-23)
(-0.102191 -0.0114043 1.1644e-21)
(-0.0104875 0.0235775 -7.90439e-21)
(-0.0341836 0.0402134 4.92137e-21)
(-0.0625682 0.0421398 -4.70552e-21)
(-0.0852253 0.0369554 2.12888e-21)
(-0.100141 0.0277612 9.93865e-21)
(-0.106984 0.0160196 -3.68834e-21)
(-0.105729 0.00268509 0)
(-0.0967493 -0.0112568 -1.46516e-21)
(-0.0805982 -0.0246091 -1.29483e-21)
(-0.0585857 -0.0355706 0)
(-0.0130512 0.0359912 5.28218e-21)
(-0.0349066 0.0618047 0)
(-0.0566388 0.0648826 1.42541e-20)
(-0.0707579 0.0565644 -1.7731e-20)
(-0.0760048 0.0417247 4.22381e-21)
(-0.0723159 0.0227213 0)
(-0.0598322 0.00100725 0)
(-0.0392303 -0.0221249 0)
(-0.0112532 -0.044615 1.06632e-20)
(0.0246509 -0.0625941 -1.01344e-20)
(-0.0162539 0.0442216 0)
(-0.0357215 0.0764714 -1.07203e-20)
(-0.0484912 0.0801564 1.98613e-20)
(-0.050755 0.0688864 -9.24494e-21)
(-0.0422682 0.0489063 8.51487e-21)
(-0.0234124 0.0233472 -2.36562e-20)
(0.00515242 -0.00597934 4.85886e-22)
(0.0424626 -0.0374919 1.34883e-20)
(0.0879822 -0.0685985 1.13379e-20)
(0.143402 -0.093538 -1.60865e-20)
(-0.0195494 0.0479765 1.16156e-20)
(-0.0361868 0.0830688 -2.26341e-20)
(-0.0383573 0.0861957 -2.24671e-22)
(-0.0260585 0.0717502 1.63339e-22)
(-0.000255487 0.0469049 8.66081e-21)
(0.0380176 0.0154705 -2.50979e-20)
(0.0875692 -0.02026 0)
(0.146629 -0.0583628 -7.08873e-21)
(0.21306 -0.0965697 6.37453e-21)
(0.294001 -0.127982 -2.17553e-20)
(-0.0224756 0.0477684 -2.8644e-22)
(-0.0355188 0.0816375 2.31902e-20)
(-0.0255424 0.0823403 1.05615e-20)
(0.00398559 0.0639593 1.04823e-20)
(0.050859 0.0342092 9.0913e-21)
(0.113092 -0.00248546 8.43054e-21)
(0.188404 -0.0432219 0)
(0.273853 -0.0856078 7.08813e-21)
(0.363179 -0.128215 1.85852e-20)
(0.47348 -0.162873 -6.70204e-21)
(-0.0246646 0.0445816 9.00388e-23)
(-0.0324494 0.0731472 1.23115e-20)
(-0.00791229 0.0691058 0)
(0.04251 0.0456925 -1.98223e-20)
(0.115188 0.0109091 1.9172e-20)
(0.206511 -0.0302728 0)
(0.311976 -0.0742926 0)
(0.426708 -0.117869 0)
(0.538413 -0.161003 -1.34714e-20)
(0.675637 -0.193618 -2.2881e-20)
(-0.025752 0.0394244 -1.37882e-20)
(-0.0250714 0.0590336 1.29157e-20)
(0.0182803 0.0480022 2.37202e-20)
(0.0951185 0.0186397 7.23334e-22)
(0.199654 -0.020817 1.99051e-20)
(0.325111 -0.064828 1.82884e-20)
(0.463023 -0.109278 1.67038e-20)
(0.605087 -0.150359 1.50857e-20)
(0.734841 -0.189422 1.34701e-20)
(0.885725 -0.214276 -1.16524e-20)
(-0.025194 0.0329867 -4.48096e-20)
(-0.0108186 0.0407506 -1.28704e-20)
(0.0580174 0.0212091 -4.79368e-20)
(0.168718 -0.0140979 -2.18748e-20)
(0.311322 -0.0565655 6.11753e-22)
(0.473266 -0.10021 -1.77831e-20)
(0.640482 -0.14082 1.72607e-20)
(0.800181 -0.175755 -1.50844e-20)
(0.938473 -0.205884 1.32081e-20)
(1.07985 -0.220381 -2.28974e-20)
(-0.0221206 0.0255324 3.03066e-20)
(0.0134403 0.019517 0)
(0.116641 -0.00874806 2.47751e-20)
(0.269255 -0.0483096 -1.20436e-22)
(0.453449 -0.0902604 6.36582e-22)
(0.647998 -0.128952 1.81166e-20)
(0.833222 -0.161131 -5.15031e-20)
(0.993949 -0.187099 0)
(1.12534 -0.204366 -1.32073e-20)
(1.23227 -0.213442 0)
(-0.085528 -0.0135821 0)
(-0.0670772 -0.0162272 -8.10611e-22)
(-0.0452367 -0.0189674 1.50196e-21)
(-0.0200068 -0.0213876 -6.09897e-22)
(0.00831743 -0.0234817 0)
(0.0393961 -0.0253275 3.0569e-22)
(0.0727635 -0.0268747 -3.07206e-22)
(0.108137 -0.0281151 0)
(0.145168 -0.0290579 0)
(0.183499 -0.029719 -7.88359e-24)
(0.222793 -0.0301206 0)
(0.262736 -0.0302909 0)
(0.303046 -0.0302626 0)
(0.343481 -0.0300725 0)
(0.383828 -0.0297599 7.87919e-23)
(0.423997 -0.0293688 -7.92004e-23)
(0.46357 -0.0289445 0)
(0.503977 -0.0285387 2.56149e-23)
(0.539249 -0.028243 -2.57497e-23)
(0.592796 -0.0280334 0)
(-0.0373379 -0.0417873 0)
(-0.0179182 -0.0494247 2.39439e-22)
(0.00493524 -0.0571305 0)
(0.0311868 -0.0641635 2.31897e-21)
(0.0599549 -0.0703482 -2.2675e-21)
(0.0910165 -0.0757067 1.10176e-22)
(0.124099 -0.0801686 -4.38848e-22)
(0.158884 -0.0837249 6.98357e-22)
(0.195037 -0.086399 -1.93233e-22)
(0.232231 -0.0882375 4.93368e-24)
(0.270153 -0.089308 -3.30151e-22)
(0.308514 -0.0896954 7.36134e-22)
(0.347055 -0.0894985 -4.50553e-22)
(0.385561 -0.0888263 -3.5488e-22)
(0.423832 -0.0877969 2.90557e-22)
(0.461824 -0.0865344 -6.88861e-23)
(0.499045 -0.0851841 -6.3297e-23)
(0.537134 -0.0838467 -9.55847e-23)
(0.569781 -0.0828962 9.60481e-23)
(0.61994 -0.0819801 -2.02695e-23)
(0.0539905 -0.0725456 -2.90705e-22)
(0.0758531 -0.0842648 -2.39852e-22)
(0.100365 -0.096168 -2.30052e-22)
(0.127786 -0.107222 0)
(0.157186 -0.116949 -2.4684e-21)
(0.188191 -0.125246 1.93101e-21)
(0.220568 -0.132089 0)
(0.254059 -0.137472 -1.12691e-22)
(0.288385 -0.141426 -1.9699e-23)
(0.323268 -0.144025 -1.53975e-22)
(0.358445 -0.145381 -3.14902e-22)
(0.393679 -0.145636 5.40686e-22)
(0.428763 -0.144954 4.44668e-23)
(0.463531 -0.143516 6.52814e-23)
(0.497815 -0.141518 5.87382e-23)
(0.53165 -0.139143 -1.77862e-22)
(0.564451 -0.136661 1.4716e-22)
(0.5981 -0.134109 2.18225e-22)
(0.62613 -0.132294 5.83571e-23)
(0.66984 -0.13013 1.03889e-23)
(0.180786 -0.106264 -8.95395e-21)
(0.206564 -0.120988 1.00514e-21)
(0.232518 -0.136246 1.3255e-21)
(0.261012 -0.150313 7.22348e-21)
(0.290802 -0.162567 5.34494e-22)
(0.321229 -0.172907 1.29319e-22)
(0.352115 -0.181317 -2.65609e-21)
(0.383324 -0.187786 2.0093e-21)
(0.414661 -0.192348 9.5702e-22)
(0.445922 -0.195101 -1.60166e-22)
(0.47692 -0.196199 3.31466e-22)
(0.507497 -0.195836 -2.76883e-22)
(0.537522 -0.194245 -4.40962e-23)
(0.566905 -0.191666 -4.77403e-22)
(0.595532 -0.188382 3.40094e-22)
(0.623536 -0.184601 4.09009e-22)
(0.650287 -0.180752 -3.75142e-22)
(0.677772 -0.176685 0)
(0.699894 -0.173763 -8.29795e-23)
(0.734884 -0.169852 -1.64208e-23)
(0.337216 -0.141773 2.12442e-20)
(0.366532 -0.158617 -8.45902e-21)
(0.393202 -0.176032 9.09594e-21)
(0.421614 -0.191859 0)
(0.450625 -0.205472 -3.71234e-22)
(0.479255 -0.216802 -4.61983e-21)
(0.507321 -0.225833 8.52076e-22)
(0.534816 -0.232538 1.01958e-21)
(0.561668 -0.236953 2.53176e-21)
(0.587767 -0.239197 5.49518e-23)
(0.613026 -0.239463 0)
(0.637388 -0.237996 2.94585e-23)
(0.66083 -0.235095 0)
(0.683359 -0.231049 7.93806e-23)
(0.704951 -0.226234 0)
(0.725802 -0.220836 0)
(0.745394 -0.215488 -8.7473e-23)
(0.765471 -0.209727 1.11237e-22)
(0.781133 -0.205608 -9.44744e-23)
(0.806054 -0.199621 3.31655e-23)
(0.517809 -0.176283 0)
(0.548222 -0.194176 -6.2558e-22)
(0.573848 -0.212673 -1.7245e-20)
(0.600083 -0.229082 1.67284e-20)
(0.626194 -0.242924 -4.45445e-22)
(0.651035 -0.254254 0)
(0.674373 -0.263029 -4.12255e-21)
(0.696302 -0.269187 6.97123e-21)
(0.716869 -0.272769 -3.26311e-21)
(0.736084 -0.273925 -1.19791e-22)
(0.753986 -0.272895 -7.0764e-23)
(0.770641 -0.269971 -2.96899e-23)
(0.786166 -0.265519 0)
(0.800661 -0.259858 -3.41704e-22)
(0.81425 -0.253464 8.65162e-22)
(0.827102 -0.246451 -4.53399e-22)
(0.839025 -0.239686 5.05116e-23)
(0.851065 -0.232298 4.3699e-23)
(0.860364 -0.227103 -2.50661e-23)
(0.874864 -0.219077 2.45186e-23)
(0.714835 -0.205686 2.31119e-20)
(0.741901 -0.223642 0)
(0.76369 -0.242152 -6.03917e-22)
(0.785107 -0.258117 1.05052e-21)
(0.80568 -0.271349 9.09984e-22)
(0.82432 -0.28199 3.94855e-22)
(0.840772 -0.2899 3.2612e-22)
(0.855157 -0.294976 -3.28374e-21)
(0.867633 -0.297289 3.88651e-21)
(0.878352 -0.297039 1.98786e-21)
(0.88752 -0.294522 -1.65309e-21)
(0.895344 -0.290077 8.17767e-23)
(0.902101 -0.284135 2.45735e-23)
(0.90796 -0.277023 1.37189e-22)
(0.913239 -0.269303 -2.53042e-22)
(0.917945 -0.260979 -3.24849e-23)
(0.922416 -0.253148 7.15732e-23)
(0.926585 -0.244498 -7.46948e-23)
(0.930182 -0.23856 -1.455e-22)
(0.934962 -0.228917 -8.19903e-24)
(0.914203 -0.225418 0)
(0.933505 -0.242857 -2.06753e-20)
(0.948678 -0.260329 2.11908e-20)
(0.962903 -0.275229 -5.35553e-22)
(0.97556 -0.287564 -9.34228e-22)
(0.985823 -0.297242 -3.94486e-22)
(0.993493 -0.304021 -6.60898e-22)
(0.998704 -0.307853 0)
(1.00174 -0.308882 -1.96726e-22)
(1.00296 -0.307348 -1.41058e-22)
(1.00276 -0.303598 -1.10502e-22)
(1.00147 -0.298 -1.21701e-22)
(0.999544 -0.291029 0)
(0.997126 -0.282981 0)
(0.994739 -0.274483 2.24775e-23)
(0.992075 -0.265398 2.58181e-22)
(0.990108 -0.257023 -1.73515e-22)
(0.987423 -0.247647 2.12703e-23)
(0.986446 -0.241395 6.17973e-23)
(0.983113 -0.230755 -1.59205e-23)
(1.09608 -0.233057 2.38553e-20)
(1.10666 -0.250142 0)
(1.114 -0.266268 0)
(1.11936 -0.280286 -1.61636e-20)
(1.12241 -0.291826 2.50856e-21)
(1.1228 -0.300458 2.58031e-20)
(1.12046 -0.306078 -1.14745e-20)
(1.11568 -0.308811 0)
(1.10901 -0.308867 0)
(1.10098 -0.306506 0)
(1.09214 -0.302089 4.93354e-23)
(1.08286 -0.295967 1.09124e-22)
(1.07364 -0.28861 5.04758e-22)
(1.0645 -0.280255 -4.89656e-22)
(1.05612 -0.271564 -4.36789e-23)
(1.04774 -0.262262 2.60175e-23)
(1.04098 -0.253807 0)
(1.03303 -0.244162 -1.37243e-23)
(1.02882 -0.237913 -1.52445e-23)
(1.01937 -0.22679 0)
(1.24531 -0.231396 -3.60492e-22)
(1.25049 -0.246685 -1.99847e-20)
(1.24911 -0.260585 1.97764e-20)
(1.24354 -0.273087 0)
(1.23545 -0.283166 1.35257e-20)
(1.22526 -0.290466 -2.49143e-20)
(1.21309 -0.29512 1.14099e-20)
(1.19935 -0.297299 0)
(1.18466 -0.297161 3.04245e-21)
(1.16955 -0.294897 -5.29941e-21)
(1.15451 -0.290802 2.32342e-21)
(1.13976 -0.285145 -3.95531e-23)
(1.12572 -0.27835 0)
(1.11219 -0.27057 -3.0211e-22)
(1.09993 -0.262466 3.13091e-22)
(1.08777 -0.25365 -2.48931e-23)
(1.07789 -0.245669 8.06533e-23)
(1.06628 -0.236258 -4.75117e-23)
(1.05998 -0.230284 -3.8707e-23)
(1.04616 -0.219072 0)
(1.37094 -0.205939 0)
(1.36053 -0.218889 0)
(1.34306 -0.230043 0)
(1.32388 -0.240835 0)
(1.30526 -0.250586 0)
(1.28701 -0.258527 0)
(1.26857 -0.264358 0)
(1.24981 -0.268085 0)
(1.23102 -0.269832 0)
(1.21246 -0.26971 0)
(1.19446 -0.267909 0)
(1.17703 -0.264561 0)
(1.16055 -0.260012 0)
(1.14463 -0.254301 0)
(1.13019 -0.248063 0)
(1.11573 -0.240824 0)
(1.10393 -0.234133 0)
(1.08996 -0.225708 0)
(1.08223 -0.220349 0)
(1.06546 -0.2096 0)
(1.40097 -0.186803 0)
(1.39115 -0.201438 0)
(1.37218 -0.214059 0)
(1.35095 -0.225283 0)
(1.33074 -0.234915 0)
(1.3114 -0.242577 0)
(1.29211 -0.248118 0)
(1.27259 -0.251606 0)
(1.2531 -0.253208 0)
(1.23392 -0.253079 0)
(1.21534 -0.251428 0)
(1.19733 -0.248395 0)
(1.18027 -0.244301 0)
(1.16371 -0.239173 0)
(1.14862 -0.23359 0)
(1.13338 -0.227081 0)
(1.12088 -0.221085 0)
(1.10587 -0.213445 0)
(1.09757 -0.208624 0)
(1.07925 -0.198717 0)
(1.41263 -0.167451 0)
(1.40273 -0.182576 0)
(1.3839 -0.19556 0)
(1.36266 -0.206438 0)
(1.34243 -0.215428 0)
(1.3232 -0.222591 0)
(1.30408 -0.227922 0)
(1.28475 -0.231465 0)
(1.26543 -0.233338 0)
(1.24638 -0.233668 0)
(1.22792 -0.232637 0)
(1.20997 -0.230358 0)
(1.19292 -0.227105 0)
(1.17627 -0.222876 0)
(1.16106 -0.218196 0)
(1.14555 -0.212605 0)
(1.13281 -0.207436 0)
(1.11732 -0.200659 0)
(1.10876 -0.196421 0)
(1.08969 -0.187352 0)
(1.41144 -0.149562 0)
(1.40217 -0.16446 0)
(1.38461 -0.177284 0)
(1.3645 -0.187829 0)
(1.34514 -0.196432 0)
(1.32666 -0.203345 0)
(1.30832 -0.208637 0)
(1.28976 -0.212324 0)
(1.27118 -0.214487 0)
(1.25281 -0.215228 0)
(1.23494 -0.214717 0)
(1.2175 -0.213052 0)
(1.20087 -0.210481 0)
(1.18453 -0.20699 0)
(1.16954 -0.203056 0)
(1.15411 -0.198238 0)
(1.14143 -0.193766 0)
(1.12582 -0.187739 0)
(1.11721 -0.183995 0)
(1.09783 -0.175695 0)
(1.40357 -0.133837 0)
(1.39524 -0.147985 0)
(1.37935 -0.160295 0)
(1.36087 -0.170419 0)
(1.3428 -0.178656 0)
(1.32544 -0.185306 0)
(1.30817 -0.190481 0)
(1.29067 -0.194206 0)
(1.27309 -0.196543 0)
(1.25564 -0.19758 0)
(1.2386 -0.197473 0)
(1.22187 -0.196308 0)
(1.20585 -0.194308 0)
(1.19001 -0.191446 0)
(1.17542 -0.188157 0)
(1.16029 -0.184016 0)
(1.14782 -0.180155 0)
(1.13231 -0.174805 0)
(1.12378 -0.171504 0)
(1.10439 -0.16394 0)
(1.39357 -0.120044 0)
(1.38603 -0.133175 0)
(1.37176 -0.144752 0)
(1.35496 -0.154336 0)
(1.3383 -0.162148 0)
(1.32212 -0.168478 0)
(1.30597 -0.173466 0)
(1.28957 -0.177147 0)
(1.27304 -0.179575 0)
(1.25655 -0.180825 0)
(1.24038 -0.181032 0)
(1.22442 -0.180271 0)
(1.20907 -0.178741 0)
(1.1938 -0.176408 0)
(1.17969 -0.173663 0)
(1.16493 -0.170106 0)
(1.15276 -0.166774 0)
(1.13747 -0.162027 0)
(1.12909 -0.159118 0)
(1.10985 -0.152242 0)
(1.38375 -0.107843 0)
(1.37673 -0.119856 0)
(1.36386 -0.130576 0)
(1.34859 -0.139523 0)
(1.33324 -0.14685 0)
(1.31819 -0.152817 0)
(1.30308 -0.157566 0)
(1.28769 -0.16114 0)
(1.27214 -0.163588 0)
(1.25656 -0.164971 0)
(1.2412 -0.165407 0)
(1.22598 -0.164959 0)
(1.21129 -0.163805 0)
(1.19659 -0.161906 0)
(1.18296 -0.159616 0)
(1.1686 -0.156558 0)
(1.15676 -0.153681 0)
(1.14174 -0.149471 0)
(1.13355 -0.146908 0)
(1.11455 -0.140672 0)
(1.37499 -0.0969298 0)
(1.36826 -0.107797 0)
(1.35654 -0.117591 0)
(1.3426 -0.125839 0)
(1.3284 -0.132635 0)
(1.31433 -0.138201 0)
(1.30014 -0.14267 0)
(1.28565 -0.146086 0)
(1.27096 -0.148492 0)
(1.25619 -0.149939 0)
(1.24159 -0.15053 0)
(1.22704 -0.150318 0)
(1.21295 -0.149461 0)
(1.19878 -0.147918 0)
(1.18561 -0.146007 0)
(1.17164 -0.143377 0)
(1.16012 -0.140892 0)
(1.1454 -0.137162 0)
(1.13739 -0.134905 0)
(1.11868 -0.129269 0)
(1.36748 -0.0870061 0)
(1.3609 -0.0967421 0)
(1.35008 -0.105594 0)
(1.33725 -0.113112 0)
(1.32405 -0.119349 0)
(1.31083 -0.124488 0)
(1.29743 -0.128644 0)
(1.28371 -0.131861 0)
(1.26978 -0.134175 0)
(1.25572 -0.135631 0)
(1.24177 -0.136319 0)
(1.22782 -0.13628 0)
(1.21427 -0.135656 0)
(1.20058 -0.134404 0)
(1.18783 -0.13281 0)
(1.17424 -0.130549 0)
(1.16303 -0.128404 0)
(1.14861 -0.125106 0)
(1.14078 -0.123123 0)
(1.12237 -0.11805 0)
(1.36115 -0.077827 0)
(1.35461 -0.0864806 0)
(1.34449 -0.0944053 0)
(1.33258 -0.101187 0)
(1.32022 -0.106851 0)
(1.30773 -0.111543 0)
(1.295 -0.115364 0)
(1.28195 -0.11835 0)
(1.26866 -0.120536 0)
(1.25522 -0.121958 0)
(1.24185 -0.122693 0)
(1.22843 -0.122777 0)
(1.21536 -0.122334 0)
(1.20211 -0.12132 0)
(1.18974 -0.119992 0)
(1.1765 -0.118052 0)
(1.16557 -0.116204 0)
(1.15144 -0.113299 0)
(1.14378 -0.11156 0)
(1.12568 -0.10702 0)
(1.35583 -0.0692225 0)
(1.34924 -0.076852 0)
(1.33969 -0.0838792 0)
(1.32854 -0.0899318 0)
(1.31689 -0.0950165 0)
(1.30502 -0.0992517 0)
(1.29286 -0.10272 0)
(1.28037 -0.105454 0)
(1.26765 -0.107483 0)
(1.25475 -0.108836 0)
(1.24187 -0.109582 0)
(1.22892 -0.109748 0)
(1.21627 -0.109442 0)
(1.20341 -0.108624 0)
(1.19139 -0.107521 0)
(1.17847 -0.105861 0)
(1.1678 -0.104273 0)
(1.15393 -0.101727 0)
(1.14645 -0.100211 0)
(1.12865 -0.096176 0)
(1.35135 -0.0610671 0)
(1.34469 -0.0677288 0)
(1.33558 -0.0738932 0)
(1.32506 -0.0792317 0)
(1.314 -0.0837399 0)
(1.30264 -0.0875131 0)
(1.29098 -0.0906193 0)
(1.27898 -0.0930847 0)
(1.26673 -0.0949347 0)
(1.25429 -0.0961939 0)
(1.24185 -0.0969198 0)
(1.22931 -0.0971345 0)
(1.21704 -0.0969325 0)
(1.20451 -0.0962749 0)
(1.19281 -0.095361 0)
(1.18017 -0.0939481 0)
(1.16974 -0.0925924 0)
(1.15613 -0.0903781 0)
(1.14879 -0.0890649 0)
(1.13128 -0.0855119 0)
(1.3476 -0.0532591 0)
(1.34084 -0.0590064 0)
(1.33207 -0.064345 0)
(1.32207 -0.0689895 0)
(1.3115 -0.0729292 0)
(1.30058 -0.0762405 0)
(1.28934 -0.0789788 0)
(1.27774 -0.0811652 0)
(1.26591 -0.0828205 0)
(1.25386 -0.083965 0)
(1.2418 -0.0846472 0)
(1.22961 -0.0848848 0)
(1.21766 -0.0847588 0)
(1.20545 -0.0842331 0)
(1.19401 -0.0834811 0)
(1.18163 -0.0822882 0)
(1.17142 -0.08114 0)
(1.15804 -0.0792341 0)
(1.15084 -0.0781078 0)
(1.13359 -0.0750169 0)
(1.34449 -0.0457184 0)
(1.33761 -0.0506008 0)
(1.32912 -0.05515 0)
(1.31954 -0.0591225 0)
(1.30937 -0.0625047 0)
(1.29882 -0.0653576 0)
(1.28791 -0.0677259 0)
(1.27667 -0.0696262 0)
(1.26518 -0.0710753 0)
(1.25347 -0.0720898 0)
(1.24173 -0.0727099 0)
(1.22983 -0.0729497 0)
(1.21817 -0.0728775 0)
(1.20622 -0.0724611 0)
(1.19502 -0.0718483 0)
(1.18287 -0.0708532 0)
(1.17284 -0.0698929 0)
(1.15967 -0.068276 0)
(1.15259 -0.0673235 0)
(1.13559 -0.0646776 0)
(1.34193 -0.0383827 0)
(1.33495 -0.0424442 0)
(1.32666 -0.0462375 0)
(1.31742 -0.0495596 0)
(1.30758 -0.0523965 0)
(1.29732 -0.0547964 0)
(1.2867 -0.0567949 0)
(1.27574 -0.058405 0)
(1.26454 -0.05964 0)
(1.25311 -0.060513 0)
(1.24164 -0.061057 0)
(1.23 -0.0612828 0)
(1.21857 -0.061247 0)
(1.20684 -0.0609215 0)
(1.19585 -0.0604299 0)
(1.18389 -0.0596149 0)
(1.17403 -0.0588264 0)
(1.16104 -0.0574828 0)
(1.15407 -0.0566933 0)
(1.13728 -0.0544779 0)
(1.33987 -0.0312018 0)
(1.33279 -0.0344801 0)
(1.32466 -0.0375469 0)
(1.31569 -0.0402383 0)
(1.30611 -0.0425418 0)
(1.29609 -0.0444951 0)
(1.28569 -0.0461259 0)
(1.27496 -0.0474439 0)
(1.26399 -0.0484595 0)
(1.25279 -0.0491827 0)
(1.24154 -0.04964 0)
(1.23011 -0.0498396 0)
(1.21888 -0.0498265 0)
(1.20734 -0.0495779 0)
(1.19651 -0.0491931 0)
(1.18472 -0.0485442 0)
(1.17499 -0.0479147 0)
(1.16216 -0.046832 0)
(1.15528 -0.0461968 0)
(1.13868 -0.0444 0)
(1.33826 -0.0241387 0)
(1.33109 -0.0266643 0)
(1.32309 -0.0290283 0)
(1.31432 -0.0311054 0)
(1.30494 -0.0328861 0)
(1.2951 -0.0343987 0)
(1.28489 -0.0356643 0)
(1.27433 -0.0366896 0)
(1.26354 -0.0374824 0)
(1.25252 -0.0380503 0)
(1.24144 -0.0384132 0)
(1.23018 -0.0385773 0)
(1.21911 -0.0385768 0)
(1.20771 -0.0383942 0)
(1.19702 -0.0381052 0)
(1.18536 -0.0376118 0)
(1.17575 -0.0371312 0)
(1.16304 -0.0362997 0)
(1.15623 -0.0358117 0)
(1.13978 -0.0344245 0)
(1.33706 -0.0171739 0)
(1.32983 -0.018969 0)
(1.32191 -0.0206467 0)
(1.31329 -0.0221205 0)
(1.30406 -0.023385 0)
(1.29436 -0.0244609 0)
(1.28427 -0.0253626 0)
(1.27385 -0.0260948 0)
(1.2632 -0.0266623 0)
(1.25231 -0.0270707 0)
(1.24136 -0.0273333 0)
(1.23022 -0.0274553 0)
(1.21926 -0.0274597 0)
(1.20798 -0.0273355 0)
(1.19739 -0.0271335 0)
(1.18583 -0.0267883 0)
(1.1763 -0.0264479 0)
(1.16369 -0.0258621 0)
(1.15694 -0.0255137 0)
(1.1406 -0.0245311 0)
(1.33623 -0.0102433 0)
(1.32897 -0.0113342 0)
(1.32112 -0.0123458 0)
(1.3126 -0.0132303 0)
(1.30347 -0.0139875 0)
(1.29385 -0.0146318 0)
(1.28385 -0.0151722 0)
(1.27352 -0.0156117 0)
(1.26296 -0.0159528 0)
(1.25216 -0.016199 0)
(1.24129 -0.0163577 0)
(1.23023 -0.0164332 0)
(1.21936 -0.0164369 0)
(1.20815 -0.0163661 0)
(1.19763 -0.0162447 0)
(1.18614 -0.0160438 0)
(1.17666 -0.0158354 0)
(1.16412 -0.0154949 0)
(1.1574 -0.0152758 0)
(1.14114 -0.0147002 0)
(1.33576 -0.0032987 0)
(1.32851 -0.00370341 0)
(1.3207 -0.00406633 0)
(1.31224 -0.00437683 0)
(1.30317 -0.00463871 0)
(1.2936 -0.00485935 0)
(1.28364 -0.00504327 0)
(1.27336 -0.0051923 0)
(1.26284 -0.00530758 0)
(1.25208 -0.00539087 0)
(1.24126 -0.00544443 0)
(1.23024 -0.00547051 0)
(1.2194 -0.00547187 0)
(1.20823 -0.00544949 0)
(1.19774 -0.00540827 0)
(1.18629 -0.00534367 0)
(1.17684 -0.00527155 0)
(1.16433 -0.00516292 0)
(1.15763 -0.00508419 0)
(1.14141 -0.00489894 0)
(1.42921 0.0998784 6.50941e-22)
(1.44572 0.0726903 0)
(1.45837 0.0441256 -6.71424e-24)
(1.46726 0.0142691 -1.13154e-22)
(1.47226 -0.0166075 -7.02091e-21)
(1.47316 -0.048345 0)
(1.47052 -0.0808514 -1.27509e-20)
(1.45544 -0.114483 0)
(1.44633 -0.146784 -1.75003e-20)
(1.37275 -0.186858 2.59289e-22)
(1.41579 0.0875958 -1.04358e-21)
(1.43061 0.0637668 1.27903e-22)
(1.44254 0.0386836 -1.28153e-22)
(1.45 0.0125238 -1.76521e-21)
(1.45641 -0.0146879 -2.97613e-22)
(1.45516 -0.0429144 8.98552e-23)
(1.46008 -0.0711501 0)
(1.44206 -0.102963 7.44581e-21)
(1.45335 -0.128087 0)
(1.40161 -0.169946 1.17732e-20)
(1.40552 0.0760229 2.25754e-21)
(1.4179 0.0547986 0)
(1.42899 0.0326244 -1.14742e-22)
(1.4341 0.00927301 -1.47481e-21)
(1.44191 -0.0142829 2.08565e-22)
(1.43782 -0.0400189 0)
(1.44709 -0.0630388 -1.52587e-21)
(1.4294 -0.0935239 -7.55041e-21)
(1.44321 -0.112093 0)
(1.41373 -0.151618 -1.16534e-20)
(1.39763 0.0659977 -1.07112e-21)
(1.40779 0.0469562 4.18356e-21)
(1.41803 0.0275976 0)
(1.42111 0.00651638 3.4906e-21)
(1.42921 -0.0134025 1.18445e-22)
(1.42405 -0.0372341 -1.53357e-22)
(1.43309 -0.0557015 1.65435e-21)
(1.41958 -0.0843525 4.10453e-23)
(1.42788 -0.099372 2.94935e-21)
(1.41286 -0.13436 0)
(1.39139 0.0572753 0)
(1.39992 0.0401668 -4.08768e-21)
(1.40908 0.0233858 -4.39414e-21)
(1.41109 0.00422836 4.97824e-22)
(1.41805 -0.0126179 -2.97032e-22)
(1.41357 -0.0345847 -1.20103e-22)
(1.41948 -0.0500449 -3.72604e-21)
(1.41059 -0.0760188 -2.72994e-23)
(1.41304 -0.089578 -2.71791e-21)
(1.40507 -0.119592 -2.16772e-21)
(1.38634 0.0496149 1.60748e-21)
(1.39376 0.0342494 2.93654e-22)
(1.4016 0.0196377 -1.04725e-21)
(1.40333 0.00228002 2.36499e-22)
(1.40837 -0.0122969 -5.6997e-21)
(1.40519 -0.0321763 0)
(1.40763 -0.0458853 4.00872e-21)
(1.40183 -0.0686862 -1.24912e-22)
(1.40072 -0.0814269 1.97114e-21)
(1.39527 -0.107011 1.80409e-21)
(1.38222 0.0428361 -1.61539e-21)
(1.38886 0.029099 -2.92857e-21)
(1.39531 0.0162489 4.48377e-21)
(1.39708 0.000696683 -7.76972e-21)
(1.40025 -0.0122363 -1.44008e-21)
(1.39812 -0.0298506 -5.3459e-21)
(1.39811 -0.0423931 1.95355e-22)
(1.39374 -0.0620847 -3.27113e-22)
(1.39093 -0.0740379 -2.04986e-21)
(1.38588 -0.0960251 3.38772e-22)
(1.3789 0.0368258 0)
(1.38489 0.0246331 6.42809e-21)
(1.3901 0.0132345 -6.49559e-22)
(1.39187 -0.000526542 3.98131e-21)
(1.39363 -0.0121637 -8.92491e-22)
(1.39201 -0.0275534 1.12836e-20)
(1.39063 -0.0390997 -4.76538e-21)
(1.38664 -0.0560973 0)
(1.38304 -0.0672002 0)
(1.37766 -0.0862735 0)
(1.37626 0.0315089 0)
(1.38165 0.0207661 -6.0891e-21)
(1.38585 0.0106172 -3.76332e-22)
(1.38746 -0.00144894 4.55953e-21)
(1.38828 -0.011951 7.62618e-21)
(1.38672 -0.0253322 -6.64849e-21)
(1.38463 -0.0359038 5.77309e-21)
(1.38054 -0.0506568 -3.10032e-22)
(1.37652 -0.0608438 0)
(1.37072 -0.0774664 3.06876e-21)
(1.37418 0.026819 2.28328e-22)
(1.37899 0.0174149 3.50563e-21)
(1.3824 0.00839328 5.35414e-21)
(1.38372 -0.0021286 -2.52389e-22)
(1.38392 -0.0115643 5.93812e-22)
(1.3822 -0.0231946 -8.23495e-21)
(1.37969 -0.0327737 7.4172e-21)
(1.37539 -0.0456183 -3.57419e-22)
(1.37108 -0.0548449 0)
(1.36496 -0.0693471 -6.83352e-21)
(1.37257 0.0226915 0)
(1.37681 0.0145084 3.63326e-21)
(1.37961 0.00653701 2.8331e-22)
(1.38059 -0.0025974 0)
(1.38034 -0.0110001 0)
(1.37838 -0.0210958 7.32793e-21)
(1.37558 -0.0296697 -6.14525e-21)
(1.37108 -0.0408415 -3.41273e-22)
(1.36652 -0.0491034 1.94069e-22)
(1.36019 -0.0617374 3.89857e-21)
(1.37132 0.0190735 0)
(1.37505 0.0119974 -6.97859e-21)
(1.37734 0.00501796 -7.25507e-21)
(1.37799 -0.00286661 1.06158e-21)
(1.37739 -0.0102641 -6.71416e-22)
(1.3752 -0.0189896 -5.117e-22)
(1.37215 -0.0265674 9.45934e-22)
(1.36751 -0.0362418 5.92636e-21)
(1.36271 -0.04356 5.32929e-22)
(1.35624 -0.0545177 -1.58077e-22)
(1.37036 0.0158826 0)
(1.37362 0.0098262 3.78419e-21)
(1.37551 0.00379474 -4.03058e-22)
(1.37585 -0.00294966 3.99718e-22)
(1.37497 -0.00937253 0)
(1.37258 -0.0168516 0)
(1.36932 -0.0234576 0)
(1.36456 -0.0317678 -6.7085e-21)
(1.35953 -0.0381681 6.24828e-21)
(1.35296 -0.0475939 0)
(1.36962 0.0130292 0)
(1.3725 0.00794068 2.4633e-21)
(1.37404 0.0028233 3.10161e-21)
(1.37412 -0.00286524 3.91116e-21)
(1.37299 -0.00834579 -7.30965e-22)
(1.37045 -0.0146719 4.36845e-21)
(1.36699 -0.0203346 -3.77382e-21)
(1.36215 -0.0273807 0)
(1.3569 -0.0328868 6.02892e-22)
(1.35028 -0.0408913 -5.93339e-21)
(1.36909 0.0104927 -5.65237e-22)
(1.37163 0.00631305 -2.00416e-21)
(1.37288 0.00207091 -4.01163e-21)
(1.37275 -0.00262996 -2.75469e-21)
(1.37141 -0.00720079 0)
(1.36873 -0.0124464 -5.53622e-21)
(1.36511 -0.0171927 5.43542e-21)
(1.3602 -0.0230517 -5.12343e-22)
(1.35477 -0.0276852 -3.11413e-21)
(1.34809 -0.0343532 8.7126e-21)
(1.36871 0.00823744 5.68142e-22)
(1.37097 0.00490439 -1.58724e-21)
(1.37199 0.00150001 1.38035e-21)
(1.37167 -0.0022663 -3.33849e-21)
(1.37017 -0.00595642 0)
(1.36739 -0.010177 0)
(1.36363 -0.0140308 5.42263e-22)
(1.35867 -0.0187617 -5.0778e-21)
(1.35308 -0.0225412 -2.97038e-21)
(1.34636 -0.0279363 -2.98988e-21)
(1.36845 0.00619473 0)
(1.37049 0.00366703 2.59013e-21)
(1.37132 0.00107139 -9.2206e-22)
(1.37086 -0.00180124 2.98865e-21)
(1.36923 -0.00463562 7.90802e-22)
(1.36637 -0.00787425 -6.3199e-22)
(1.36251 -0.0108557 1.1745e-21)
(1.3575 -0.0145026 3.51158e-21)
(1.35177 -0.0174431 0)
(1.34501 -0.0216102 0)
(1.36829 0.00432537 0)
(1.37016 0.00257114 1.06925e-21)
(1.37084 0.000758601 -1.90837e-21)
(1.37028 -0.00125463 0)
(1.36856 -0.0032563 -1.53595e-21)
(1.36563 -0.00554815 -6.44068e-22)
(1.36169 -0.00767572 -1.77489e-21)
(1.35665 -0.0102743 -4.99172e-22)
(1.35081 -0.0123893 2.65301e-22)
(1.34402 -0.0153638 2.11932e-22)
(1.36818 0.00259534 0)
(1.36994 0.0015963 -1.0744e-21)
(1.37053 0.000558175 -9.49711e-22)
(1.3699 -0.000609912 1.28524e-21)
(1.36812 -0.00178647 7.25313e-22)
(1.36515 -0.00314977 6.87033e-22)
(1.36116 -0.00443176 2.97274e-21)
(1.35609 -0.00600703 -2.1282e-21)
(1.35017 -0.00730881 4.88768e-22)
(1.34333 -0.00912665 0)
(1.36811 0.000822657 0)
(1.36982 0.000590408 5.22217e-22)
(1.37036 0.000334519 -4.95201e-22)
(1.3697 1.68982e-05 4.62524e-22)
(1.36789 -0.000325148 0)
(1.3649 -0.000752694 -6.90504e-22)
(1.36087 -0.00117621 5.81626e-22)
(1.35578 -0.00172041 5.02447e-22)
(1.34981 -0.00219476 0)
(1.34293 -0.00285962 0)
(1.0267 0.291069 0)
(1.00886 0.320921 -4.37573e-20)
(0.997091 0.357903 0)
(0.988233 0.403271 -1.43134e-19)
(0.98003 0.45718 5.58154e-20)
(0.971352 0.521261 2.26273e-21)
(0.958781 0.594974 4.17032e-20)
(0.922553 0.663664 -8.39841e-21)
(0.796946 0.664033 0)
(0.449394 0.402707 3.55988e-20)
(1.07713 0.291386 7.9613e-20)
(1.06423 0.326406 4.37556e-20)
(1.05959 0.36252 -3.98662e-20)
(1.05702 0.406974 4.81986e-20)
(1.05513 0.460423 -3.76498e-20)
(1.05385 0.523709 8.11603e-21)
(1.04909 0.595575 -4.45952e-20)
(1.01769 0.659583 -8.32518e-20)
(0.884386 0.651882 -2.18365e-20)
(0.495477 0.385333 -5.10959e-20)
(1.12849 0.286604 -3.3884e-20)
(1.12175 0.32228 3.45172e-20)
(1.12231 0.357658 3.98646e-20)
(1.12463 0.401481 4.01372e-20)
(1.12859 0.454169 3.99859e-20)
(1.13438 0.515859 3.90296e-20)
(1.13652 0.584448 9.41718e-21)
(1.10791 0.641519 3.22758e-20)
(0.963924 0.624395 7.73674e-21)
(0.532774 0.357422 -8.25897e-21)
(1.18136 0.278122 6.79943e-20)
(1.17955 0.312727 -3.45157e-20)
(1.18385 0.346598 0)
(1.19026 0.388805 0)
(1.19954 0.43952 0)
(1.21165 0.498352 2.40102e-20)
(1.2192 0.562128 -1.65148e-20)
(1.19057 0.610142 0)
(1.03228 0.582772 1.29445e-21)
(0.558653 0.320612 -9.76817e-22)
(1.23226 0.265444 -1.09749e-20)
(1.23474 0.298009 4.33952e-20)
(1.24235 0.329978 0)
(1.2526 0.369812 0)
(1.26674 0.417417 9.69018e-21)
(1.28415 0.47208 7.71313e-21)
(1.29509 0.529708 1.34239e-20)