/*--------------------------------*- C++ -*----------------------------------*\
| =========                 |                                                 |
| \\      /  F ield         | OpenFOAM: The Open Source CFD Toolbox           |
|  \\    /   O peration     | Version:  4.1                                   |
|   \\  /    A nd           | Web:      www.OpenFOAM.org                      |
|    \\/     M anipulation  |                                                 |
\*---------------------------------------------------------------------------*/
FoamFile
{
    version     2.0;
    format      ascii;
    class       volVectorField;
    location    "5";
    object      U;
}
// * * * * * * * * * * * * * * * * * * * * * * * * * * * * * * * * * * * * * //

dimensions      [0 1 -1 0 0 0 0];

internalField   nonuniform List<vector> 
2000
(
(-0.0156683 0.0170749 7.37583e-20)
(0.00759638 0.0197113 0)
(0.074962 0.0142663 1.26848e-19)
(0.173327 0.00613165 5.59292e-20)
(0.293727 -0.00126201 -1.06512e-19)
(0.428481 -0.00595743 -1.39603e-19)
(0.570474 -0.00713749 4.39336e-20)
(0.713623 -0.00413737 0)
(0.853632 0.00481789 -3.59648e-20)
(0.97743 0.012053 0)
(-0.00863516 0.0108955 -3.64592e-20)
(0.0380008 0.00490795 3.40855e-20)
(0.135646 -0.00292727 -1.40398e-19)
(0.267174 -0.00933308 -1.8549e-19)
(0.420068 -0.0121967 -3.49823e-21)
(0.583344 -0.0107264 4.53049e-20)
(0.747223 -0.00537798 -4.79369e-20)
(0.903895 0.00289972 -4.0649e-20)
(1.04815 0.012965 3.59571e-20)
(1.16821 0.0132908 6.30792e-20)
(0.00258706 0.00415415 4.08088e-20)
(0.0800501 -0.00956287 -4.28203e-20)
(0.213756 -0.0172638 7.06483e-20)
(0.381352 -0.018838 -4.91011e-21)
(0.565578 -0.0142446 5.68133e-20)
(0.751629 -0.00440463 5.08922e-20)
(0.927482 0.00872534 4.55216e-20)
(1.08477 0.0229979 4.0642e-20)
(1.2189 0.0364696 3.59801e-20)
(1.32383 0.0418358 -3.14218e-20)
(0.018827 -0.00259842 -1.89908e-21)
(0.134845 -0.021855 -4.69096e-20)
(0.309104 -0.0258711 0)
(0.512781 -0.0190844 6.29186e-20)
(0.723174 -0.00449578 -6.52867e-20)
(0.922302 0.0147427 0)
(1.09775 0.035167 0)
(1.243 0.0539309 0)
(1.35648 0.0690569 -3.59786e-20)
(1.43793 0.0762495 5.70701e-20)
(0.0407266 -0.00857251 1.02351e-19)
(0.202587 -0.0297498 -3.10738e-22)
(0.419611 -0.0258246 4.49717e-20)
(0.655704 -0.00743115 3.40917e-20)
(0.883246 0.0184597 3.42565e-20)
(1.08331 0.0463685 2.92587e-20)
(1.24603 0.0718831 0)
(1.36934 0.0923246 2.0337e-20)
(1.45634 0.1065 -7.97594e-20)
(1.51201 0.112861 1.03241e-19)
(0.0685938 -0.0127584 -1.62445e-19)
(0.282277 -0.0308315 4.84844e-21)
(0.54119 -0.0145502 -8.9692e-20)
(0.802318 0.0176169 8.22989e-20)
(1.03548 0.0543135 -1.00464e-19)
(1.2244 0.0883905 3.40948e-20)
(1.36487 0.115595 0)
(1.46097 0.134388 -2.03385e-20)
(1.52075 0.144964 1.65244e-20)
(1.55283 0.14797 4.16355e-20)
(0.102273 -0.0139994 0)
(0.371567 -0.0227834 0)
(0.668054 0.00972606 -4.75918e-20)
(0.944042 0.0561417 4.55368e-20)
(1.17095 0.101325 -3.38529e-20)
(1.33908 0.137924 3.23935e-20)
(1.4521 0.163208 4.36215e-20)
(1.52038 0.177576 -4.18033e-20)
(1.55591 0.182886 -2.50968e-20)
(1.56908 0.181472 1.27334e-20)
(0.141059 -0.0111127 3.29425e-20)
(0.466822 -0.00374933 0)
(0.793443 0.0476334 -2.29845e-20)
(1.07297 0.106885 8.93679e-20)
(1.2835 0.156915 -5.81154e-20)
(1.42503 0.192089 0)
(1.50958 0.212357 0)
(1.55276 0.220402 0)
(1.56877 0.219625 -2.01764e-20)
(1.56815 0.213382 1.93835e-20)
(0.183668 -0.00304049 -1.69058e-20)
(0.563429 0.027331 -7.01272e-22)
(0.910575 0.098544 -2.68542e-20)
(1.183 0.167609 1.12445e-20)
(1.37011 0.218277 1.07516e-20)
(1.48304 0.248471 1.55849e-20)
(1.54123 0.261484 0)
(1.56372 0.262198 -3.07269e-21)
(1.56519 0.255202 -8.7916e-21)
(1.5552 0.244206 6.72716e-21)
(0.228303 0.0109931 0)
(0.656306 0.070501 -1.6123e-20)
(1.01351 0.160705 0)
(1.27024 0.235536 -6.2193e-21)
(1.43032 0.282747 -6.07051e-21)
(1.51569 0.305164 -7.20833e-21)
(1.55143 0.309546 0)
(1.55805 0.302581 3.07341e-21)
(1.54945 0.289592 1.78634e-21)
(1.53361 0.274004 -1.23885e-22)
(-0.00490889 0.00449479 0)
(-0.019575 0.00894989 -5.43312e-21)
(-0.0410866 0.0108357 0)
(-0.0630361 0.0114398 -7.61895e-21)
(-0.0833915 0.0114261 -2.45692e-21)
(-0.101865 0.0111888 4.64081e-21)
(-0.118612 0.0109832 -4.43192e-21)
(-0.133996 0.0109656 4.25552e-21)
(-0.148496 0.0112319 8.89497e-24)
(-0.162783 0.0118428 3.88935e-21)
(-0.0059048 0.0130804 -1.46173e-20)
(-0.0207883 0.0260096 1.03203e-20)
(-0.0410512 0.0314874 -1.0378e-20)
(-0.0609286 0.0331825 4.91281e-21)
(-0.0786751 0.033028 2.38363e-20)
(-0.0940958 0.0321899 -9.10424e-21)
(-0.107399 0.0314315 0)
(-0.118966 0.0312385 -4.16197e-21)
(-0.129227 0.0319288 -3.98793e-21)
(-0.139083 0.0336824 0)
(-0.00779067 0.0204628 9.73654e-21)
(-0.0230761 0.0406736 0)
(-0.0409471 0.0491935 3.14578e-20)
(-0.0569001 0.0516259 -4.0422e-20)
(-0.0696882 0.0510109 9.77366e-21)
(-0.0793098 0.0492208 0)
(-0.0860934 0.0475107 0)
(-0.090476 0.0467401 0)
(-0.0928177 0.0475485 3.22577e-20)
(-0.094423 0.0502753 -3.09709e-20)
(-0.0103026 0.0260614 0)
(-0.0260881 0.0517703 -2.26453e-20)
(-0.0406175 0.0624247 4.34782e-20)
(-0.0510816 0.0650246 -2.08466e-20)
(-0.0569253 0.0634748 1.98257e-20)
(-0.0584478 0.060228 -5.66852e-20)
(-0.0561737 0.0569838 2.83119e-22)
(-0.050662 0.0550284 3.43352e-20)
(-0.0422179 0.0555197 3.24101e-20)
(-0.0325908 0.059167 -4.66678e-20)
(-0.0131231 0.0296543 2.16723e-20)
(-0.0292867 0.0586435 -4.7914e-20)
(-0.0395995 0.0702426 -5.98927e-22)
(-0.0431811 0.0722882 3.28673e-22)
(-0.0403296 0.0692665 1.98982e-20)
(-0.0317548 0.0640358 -5.84347e-20)
(-0.0182547 0.0586369 0)
(-0.000571946 0.0547945 -1.72791e-20)
(0.021003 0.0544295 1.61871e-20)
(0.0439492 0.0590292 -6.39556e-20)
(-0.0159239 0.0312861 -7.70654e-22)
(-0.0319228 0.0611232 4.93819e-20)
(-0.0369336 0.0723086 2.32132e-20)
(-0.0320922 0.0730384 2.36818e-20)
(-0.0186681 0.068099 2.074e-20)
(0.00211068 0.0605512 1.95375e-20)
(0.0290797 0.0526041 0)
(0.0612134 0.0463132 1.72762e-20)
(0.0982285 0.0445364 4.79973e-20)
(0.136883 0.0502881 -1.59428e-20)
(-0.0183714 0.0311609 1.51551e-22)
(-0.0330018 0.0594054 2.66712e-20)
(-0.031037 0.0688058 0)
(-0.0156514 0.0675656 -4.40509e-20)
(0.0108296 0.0605408 4.3978e-20)
(0.0465487 0.0508063 0)
(0.0898449 0.0405236 0)
(0.139232 0.0318089 0)
(0.194359 0.0283923 -3.19051e-20)
(0.251662 0.0356549 -6.46201e-20)
(-0.0200935 0.0295134 -2.71866e-20)
(-0.0312554 0.053889 2.85299e-20)
(-0.0196973 0.0602944 5.39367e-20)
(0.00932026 0.0566968 2.1943e-21)
(0.0523207 0.0478635 4.5821e-20)
(0.106646 0.0367588 4.2143e-20)
(0.169912 0.0253176 3.86883e-20)
(0.239873 0.0153585 3.53494e-20)
(0.315848 0.0110521 3.18974e-20)
(0.394834 0.0206228 -2.97358e-20)
(-0.0206268 0.0265342 -9.11775e-20)
(-0.0251254 0.0450516 -2.83926e-20)
(-0.000196675 0.0475928 -1.08908e-19)
(0.0466769 0.0416687 -5.00772e-20)
(0.110675 0.0318364 2.03294e-21)
(0.188019 0.0208965 -4.02812e-20)
(0.275192 0.0105037 4.13177e-20)
(0.368724 0.0020025 -3.53408e-20)
(0.46696 -0.000585251 3.22955e-20)
(0.568102 0.0127955 -6.31682e-20)
(-0.0193904 0.0223504 6.19741e-20)
(-0.0128152 0.0334275 0)
(0.0304246 0.0317698 5.71933e-20)
(0.100324 0.0240984 -1.42471e-22)
(0.190346 0.0145856 2.36006e-21)
(0.295114 0.00577296 4.33769e-20)
(0.409503 -0.000973065 -1.23284e-19)
(0.528512 -0.00462085 0)
(0.648633 -0.00178934 -3.22857e-20)
(0.765715 0.0138228 0)
(-0.177521 0.0126471 0)
(-0.193529 0.0127925 -3.8474e-21)
(-0.2095 0.012515 7.71666e-21)
(-0.224997 0.0120026 -3.38294e-21)
(-0.239823 0.0113008 0)
(-0.25375 0.0104144 3.80507e-21)
(-0.26653 0.0093432 -3.82086e-21)
(-0.277912 0.00808596 0)
(-0.287643 0.00664105 0)
(-0.29546 0.00500846 4.45166e-22)
(-0.301075 0.00319116 0)
(-0.304155 0.00119384 0)
(-0.304538 -0.00097704 0)
(-0.302043 -0.00328741 0)
(-0.29641 -0.00569261 -5.16622e-22)
(-0.287587 -0.00811945 5.18826e-22)
(-0.275591 -0.0104449 0)
(-0.259723 -0.0125168 -8.38301e-23)
(-0.23889 -0.0142539 8.41913e-23)
(-0.21956 -0.0155476 0)
(-0.150442 0.0359513 0)
(-0.164523 0.0363616 9.70986e-22)
(-0.178476 0.0355965 0)
(-0.191863 0.0341642 1.48989e-20)
(-0.204654 0.0321784 -1.446e-20)
(-0.216662 0.0296505 9.71449e-22)
(-0.227654 0.0265824 -7.52017e-21)
(-0.237402 0.0229733 1.58775e-20)
(-0.245681 0.0188216 -1.36531e-20)
(-0.252263 0.0141297 7.67111e-21)
(-0.256901 0.00890871 6.55755e-21)
(-0.259309 0.00317443 -1.18867e-20)
(-0.259357 -0.00305601 6.14486e-21)
(-0.256878 -0.00969166 3.17126e-21)
(-0.251649 -0.0166119 -2.49403e-21)
(-0.24361 -0.023623 5.05001e-22)
(-0.232771 -0.0303907 3.95677e-22)
(-0.218527 -0.036462 3.67913e-22)
(-0.199669 -0.0415234 -3.69319e-22)
(-0.181518 -0.0452514 1.93739e-23)
(-0.099765 0.0537421 -9.87249e-22)
(-0.110266 0.0543252 -9.73833e-22)
(-0.120535 0.0532149 -9.97862e-22)
(-0.130031 0.0511167 0)
(-0.139015 0.0481511 -1.77533e-20)
(-0.147399 0.0443222 1.38536e-20)
(-0.15498 0.0396364 0)
(-0.161573 0.034101 -1.93566e-21)
(-0.167003 0.0277219 -9.30751e-22)
(-0.171102 0.0205116 1.25753e-20)
(-0.173692 0.0124993 -7.19789e-22)
(-0.174572 0.00372087 -1.54692e-20)
(-0.173673 -0.00583431 -8.02926e-22)
(-0.170851 -0.0160035 -6.8494e-22)
(-0.165968 -0.0266229 -6.4765e-22)
(-0.158973 -0.0374392 1.37056e-21)
(-0.149866 -0.0479969 -1.30868e-21)
(-0.138189 -0.0576065 -1.4065e-21)
(-0.122689 -0.0656613 -2.49462e-22)
(-0.10678 -0.0716316 4.54262e-23)
(-0.0303796 0.0635825 -3.11142e-20)
(-0.0362372 0.0643192 -2.71636e-23)
(-0.0417819 0.0629984 1.03892e-21)
(-0.0462075 0.0604926 3.25041e-20)
(-0.0501283 0.0569046 3.06179e-21)
(-0.0536181 0.0522002 1.00268e-21)
(-0.0565257 0.0463821 -3.01473e-20)
(-0.0587201 0.0394713 1.73804e-20)
(-0.0600996 0.0314875 1.59297e-20)
(-0.0605611 0.0224567 -1.61085e-20)
(-0.0600043 0.01243 6.70462e-22)
(-0.0584057 0.00147493 1.71613e-20)
(-0.0557027 -0.0104092 8.00402e-22)
(-0.0517479 -0.0230306 7.24396e-21)
(-0.0465611 -0.0362125 -5.05968e-21)
(-0.040135 -0.0496898 -4.10443e-21)
(-0.0324834 -0.0629998 3.59306e-21)
(-0.0233833 -0.0753701 0)
(-0.0118161 -0.0858233 5.587e-22)
(0.00153651 -0.0931565 3.32245e-23)
(0.0542183 0.0647947 6.34409e-20)
(0.0536041 0.0657622 -3.10947e-20)
(0.0528765 0.0641538 3.3254e-20)
(0.0538852 0.061353 0)
(0.0556049 0.0574174 -2.06351e-21)
(0.0576647 0.052207 -3.33033e-20)
(0.0601392 0.0457088 -1.82105e-21)
(0.0630951 0.0379628 4.13072e-22)
(0.0665429 0.0290025 3.28274e-20)
(0.070502 0.0188625 1.95555e-21)
(0.0750161 0.00760884 0)
(0.0799518 -0.00466072 -1.80039e-21)
(0.0853229 -0.0178711 0)
(0.0912317 -0.0318565 -1.54542e-21)
(0.0975665 -0.0464234 0)
(0.104258 -0.0613044 0)
(0.111234 -0.0760937 9.47274e-22)
(0.118602 -0.0901 -1.14743e-21)
(0.12732 -0.1022 1.02769e-21)
(0.137245 -0.110609 -2.97811e-22)
(0.154602 0.0584412 0)
(0.158645 0.0595781 -2.11001e-21)
(0.162138 0.0573742 -6.7527e-20)
(0.168263 0.0542148 6.54672e-20)
(0.175489 0.0500437 -2.11919e-21)
(0.183043 0.0445371 0)
(0.190912 0.0376763 -3.37098e-20)
(0.199096 0.0295288 6.50128e-20)
(0.207501 0.0201474 -3.54865e-20)
(0.216046 0.00956329 -2.04001e-21)
(0.224718 -0.00212173 -1.98169e-21)
(0.233284 -0.0149618 -1.9004e-21)
(0.241684 -0.0286909 0)
(0.249957 -0.0431343 1.08013e-20)
(0.257958 -0.0580868 -2.49323e-20)
(0.26556 -0.0732694 1.09848e-20)
(0.272643 -0.088315 -1.05401e-21)
(0.279168 -0.102664 -7.84813e-22)
(0.285744 -0.115404 3.04365e-22)
(0.293119 -0.124945 -3.25428e-22)
(0.275166 0.046898 6.39332e-20)
(0.282511 0.0477698 0)
(0.28919 0.0444123 -2.13759e-21)
(0.299655 0.040722 4.24611e-21)
(0.311632 0.0362932 4.25131e-21)
(0.32389 0.0305546 2.12241e-21)
(0.336357 0.0235321 2.11495e-21)
(0.348998 0.0153222 -3.14523e-20)
(0.361621 0.00601024 3.76791e-20)
(0.374079 -0.00445184 3.63088e-20)
(0.386102 -0.0160981 -3.02316e-20)
(0.397572 -0.0288264 3.78636e-21)
(0.408543 -0.0423432 -1.38071e-20)
(0.418816 -0.0564986 2.83985e-21)
(0.428233 -0.0710601 1.55397e-20)
(0.436663 -0.0857214 1.29019e-21)
(0.443978 -0.100122 -1.59193e-21)
(0.45006 -0.113797 1.90752e-21)
(0.455135 -0.126081 3.03639e-21)
(0.460426 -0.13581 1.66027e-22)
(0.421646 0.0342515 0)
(0.43123 0.0330709 -6.99677e-20)
(0.440549 0.0276867 7.19733e-20)
(0.454468 0.0233327 -2.13453e-21)
(0.469791 0.0185842 -4.24178e-21)
(0.48506 0.0126692 -2.12826e-21)
(0.500273 0.00574265 -4.20414e-21)
(0.515477 -0.0020915 0)
(0.530368 -0.011044 -2.0711e-21)
(0.544631 -0.0211225 -2.02867e-21)
(0.558208 -0.0322817 -1.94039e-21)
(0.571058 -0.044284 -3.74255e-21)
(0.583011 -0.0570416 0)
(0.59389 -0.0703704 0)
(0.60355 -0.0839995 -1.47103e-21)
(0.611849 -0.0976009 -1.18083e-20)
(0.618677 -0.110808 8.20658e-21)
(0.623911 -0.123187 -7.7248e-22)
(0.627574 -0.134237 -1.60895e-21)
(0.630677 -0.143398 4.91273e-22)
(0.597857 0.02474 6.5263e-20)
(0.611337 0.0175606 0)
(0.624154 0.00990424 0)
(0.640018 0.00532069 -6.76184e-20)
(0.655765 0.000510375 2.30444e-21)
(0.670734 -0.00523334 1.33453e-19)
(0.685324 -0.0116663 -6.42167e-20)
(0.699467 -0.0189226 0)
(0.713068 -0.0272461 0)
(0.726162 -0.036565 0)
(0.73856 -0.0468141 9.92599e-22)
(0.750123 -0.0579173 2.73688e-21)
(0.760695 -0.0697353 2.64662e-20)
(0.770115 -0.0820413 -2.55653e-20)
(0.778235 -0.0945513 1.06233e-20)
(0.784896 -0.106922 -9.33214e-21)
(0.790022 -0.118784 0)
(0.793451 -0.1297 3.89634e-22)
(0.795339 -0.139219 4.71242e-22)
(0.795677 -0.147364 0)
(0.813267 0.0116697 -1.09574e-21)
(0.833921 -0.00127832 -6.86741e-20)
(0.847769 -0.00646728 6.8311e-20)
(0.859067 -0.00901617 0)
(0.868186 -0.0126828 6.49298e-20)
(0.876565 -0.0173588 -1.28631e-19)
(0.885006 -0.0228474 6.36983e-20)
(0.893481 -0.0293657 0)
(0.901899 -0.0369145 3.04547e-20)
(0.910205 -0.0455149 -5.9843e-20)
(0.91823 -0.0550926 3.03139e-20)
(0.925782 -0.0655156 -8.81969e-22)
(0.932666 -0.0765965 0)
(0.938673 -0.0880903 -2.35001e-20)
(0.943641 -0.0997082 3.2586e-20)
(0.947359 -0.111096 -9.93259e-21)
(0.949824 -0.121894 -6.59537e-21)
(0.950666 -0.131668 4.62121e-21)
(0.950588 -0.139926 2.27069e-21)
(0.947731 -0.147096 0)
(1.09419 0.00951326 0)
(1.07965 0.000317728 0)
(1.07285 -0.00455904 0)
(1.06717 -0.00877405 0)
(1.0635 -0.0136411 0)
(1.06231 -0.0190972 0)
(1.06305 -0.0251737 0)
(1.06503 -0.0319946 0)
(1.0678 -0.0395932 0)
(1.07105 -0.0479893 0)
(1.07449 -0.0571402 0)
(1.07782 -0.0669485 0)
(1.08079 -0.0772735 0)
(1.08315 -0.0879176 0)
(1.08474 -0.0986467 0)
(1.08527 -0.109152 0)
(1.0849 -0.119129 0)
(1.08289 -0.128198 0)
(1.08084 -0.135811 0)
(1.07463 -0.142686 0)
(1.2668 0.0244306 0)
(1.255 0.0175602 0)
(1.24674 0.00912296 0)
(1.23783 0.000707455 0)
(1.22991 -0.00731689 0)
(1.22398 -0.0151585 0)
(1.21983 -0.0230882 0)
(1.21697 -0.0312886 0)
(1.21504 -0.0398579 0)
(1.21373 -0.0488472 0)
(1.21279 -0.0582537 0)
(1.21192 -0.0680166 0)
(1.21087 -0.0780281 0)
(1.20939 -0.0881225 0)
(1.20736 -0.0981042 0)
(1.20444 -0.107708 0)
(1.20097 -0.116673 0)
(1.19581 -0.124704 0)
(1.19159 -0.131236 0)
(1.18192 -0.137133 0)
(1.39134 0.0344235 0)
(1.38148 0.027645 0)
(1.37357 0.0187662 0)
(1.3654 0.0092409 0)
(1.35756 -3.50783e-05 0)
(1.3507 -0.00908492 0)
(1.34482 -0.0181223 0)
(1.3397 -0.027264 0)
(1.33515 -0.0365601 0)
(1.331 -0.0460319 0)
(1.32707 -0.0556704 0)
(1.32313 -0.0654231 0)
(1.31903 -0.0751984 0)
(1.31453 -0.0848555 0)
(1.3096 -0.0942297 0)
(1.30384 -0.103104 0)
(1.29785 -0.111246 0)
(1.29006 -0.11847 0)
(1.2841 -0.124172 0)
(1.2715 -0.12942 0)
(1.47688 0.0444587 0)
(1.46905 0.0360699 0)
(1.46158 0.0266918 0)
(1.45446 0.0167417 0)
(1.44772 0.00692381 0)
(1.44141 -0.0026771 0)
(1.43548 -0.012204 0)
(1.42981 -0.0217499 0)
(1.42433 -0.0313376 0)
(1.41892 -0.0409618 0)
(1.41346 -0.0505981 0)
(1.40781 -0.0601919 0)
(1.40188 -0.0696592 0)
(1.39548 -0.0788781 0)
(1.38867 -0.0877049 0)
(1.38103 -0.09597 0)
(1.37336 -0.103453 0)
(1.36374 -0.110082 0)
(1.35666 -0.115193 0)
(1.34197 -0.120073 0)
(1.52809 0.0532365 0)
(1.52305 0.0432125 0)
(1.51685 0.033206 0)
(1.51103 0.0230015 0)
(1.50567 0.0129513 0)
(1.50046 0.0031388 0)
(1.49523 -0.00652345 0)
(1.48991 -0.0161172 0)
(1.48447 -0.0256648 0)
(1.47883 -0.035155 0)
(1.47292 -0.0445573 0)
(1.46662 -0.0538181 0)
(1.45991 -0.0628597 0)
(1.45263 -0.0715783 0)
(1.44492 -0.0798444 0)
(1.43632 -0.0875329 0)
(1.42783 -0.0944249 0)
(1.41725 -0.100556 0)
(1.40964 -0.105191 0)
(1.39388 -0.109819 0)
(1.55198 0.0590017 0)
(1.55006 0.0480793 0)
(1.54581 0.0377319 0)
(1.54162 0.0275458 0)
(1.53779 0.0175761 0)
(1.53391 0.00786156 0)
(1.52973 -0.00165533 0)
(1.52521 -0.0110325 0)
(1.52034 -0.0202942 0)
(1.51507 -0.0294319 0)
(1.50936 -0.0384153 0)
(1.50312 -0.0471952 0)
(1.49636 -0.0557013 0)
(1.48894 -0.0638479 0)
(1.48107 -0.0715175 0)
(1.47226 -0.078625 0)
(1.46362 -0.0849507 0)
(1.45283 -0.0906203 0)
(1.44519 -0.0948402 0)
(1.42924 -0.0992566 0)
(1.55688 0.0615413 0)
(1.55772 0.0504944 0)
(1.55556 0.0401994 0)
(1.55308 0.0303015 0)
(1.55078 0.0206804 0)
(1.54825 0.0113156 0)
(1.54523 0.00217003 0)
(1.54168 -0.00679265 0)
(1.53762 -0.0155919 0)
(1.53303 -0.0242218 0)
(1.52788 -0.0326553 0)
(1.5221 -0.0408497 0)
(1.51574 -0.0487422 0)
(1.50865 -0.0562642 0)
(1.5011 -0.0633098 0)
(1.49258 -0.0698276 0)
(1.48425 -0.0756002 0)
(1.47377 -0.0808195 0)
(1.46644 -0.0846612 0)
(1.45095 -0.0888636 0)
(1.55022 0.0614293 0)
(1.5531 0.0507923 0)
(1.55279 0.0408746 0)
(1.55185 0.0314668 0)
(1.55089 0.0223772 0)
(1.54958 0.0135383 0)
(1.54764 0.00492399 0)
(1.54505 -0.0034864 0)
(1.54185 -0.0117041 0)
(1.53803 -0.0197248 0)
(1.53358 -0.0275258 0)
(1.52845 -0.0350707 0)
(1.52269 -0.0423048 0)
(1.51619 -0.0491742 0)
(1.50921 -0.0555845 0)
(1.50127 -0.0615106 0)
(1.4935 -0.0667426 0)
(1.48365 -0.0715141 0)
(1.47682 -0.0750006 0)
(1.4622 -0.0789628 0)
(1.53752 0.0593661 0)
(1.54174 0.0494471 0)
(1.54287 0.0401346 0)
(1.54318 0.0313534 0)
(1.54329 0.0229061 0)
(1.54294 0.0147015 0)
(1.54191 0.00671761 0)
(1.54017 -0.0010544 0)
(1.53775 -0.00861974 0)
(1.53466 -0.0159746 0)
(1.53091 -0.0230998 0)
(1.52646 -0.0299655 0)
(1.52136 -0.0365243 0)
(1.51553 -0.0427349 0)
(1.50921 -0.0485142 0)
(1.50197 -0.0538559 0)
(1.49487 -0.0585633 0)
(1.48579 -0.0628889 0)
(1.47953 -0.0660368 0)
(1.46598 -0.0697269 0)
(1.52243 0.055974 0)
(1.52741 0.0469281 0)
(1.52958 0.038361 0)
(1.53083 0.0302906 0)
(1.53174 0.0225464 0)
(1.53212 0.0150342 0)
(1.53179 0.00773385 0)
(1.53072 0.000644203 0)
(1.52895 -0.00623557 0)
(1.52649 -0.0129016 0)
(1.52336 -0.0193379 0)
(1.51953 -0.0255201 0)
(1.51507 -0.0314083 0)
(1.50988 -0.0369706 0)
(1.50422 -0.0421358 0)
(1.49767 -0.0469094 0)
(1.49124 -0.0511122 0)
(1.48295 -0.0549981 0)
(1.47726 -0.0578215 0)
(1.4648 -0.0612123 0)
(1.50703 0.0517374 0)
(1.5124 0.0436224 0)
(1.5153 0.0358721 0)
(1.51723 0.0285582 0)
(1.51872 0.0215468 0)
(1.51962 0.0147528 0)
(1.5198 0.00815889 0)
(1.51925 0.00176794 0)
(1.51798 -0.00441786 0)
(1.51604 -0.0103944 0)
(1.51342 -0.016148 0)
(1.51012 -0.0216593 0)
(1.5062 -0.0268949 0)
(1.50159 -0.0318308 0)
(1.49652 -0.0364064 0)
(1.49061 -0.0406346 0)
(1.48479 -0.0443561 0)
(1.47725 -0.0478134 0)
(1.47207 -0.0503258 0)
(1.46065 -0.0533985 0)
(1.49243 0.0469832 0)
(1.49796 0.0398029 0)
(1.50135 0.0328968 0)
(1.50379 0.0263606 0)
(1.50569 0.0200944 0)
(1.50697 0.0140273 0)
(1.50752 0.00814562 0)
(1.50735 0.00245434 0)
(1.50648 -0.00304241 0)
(1.50493 -0.00834019 0)
(1.50273 -0.0134275 0)
(1.49987 -0.0182887 0)
(1.49641 -0.0228964 0)
(1.49228 -0.0272327 0)
(1.48771 -0.0312469 0)
(1.48236 -0.0349554 0)
(1.47707 -0.0382196 0)
(1.47018 -0.0412628 0)
(1.46546 -0.0434772 0)
(1.45496 -0.046222 0)
(1.47914 0.0419069 0)
(1.4847 0.0356426 0)
(1.48844 0.0295847 0)
(1.49124 0.0238337 0)
(1.49344 0.0183163 0)
(1.495 0.0129768 0)
(1.49584 0.00780526 0)
(1.49595 0.0028078 0)
(1.49539 -0.00201029 0)
(1.49416 -0.00664446 0)
(1.49228 -0.011085 0)
(1.48978 -0.0153192 0)
(1.48669 -0.019325 0)
(1.48297 -0.0230889 0)
(1.47882 -0.0265693 0)
(1.47393 -0.0297836 0)
(1.4691 -0.0326136 0)
(1.46276 -0.0352586 0)
(1.45842 -0.0371869 0)
(1.44872 -0.0396006 0)
(1.46735 0.0366198 0)
(1.4729 0.0312469 0)
(1.47688 0.0260303 0)
(1.47996 0.0210641 0)
(1.4824 0.0162949 0)
(1.48416 0.0116802 0)
(1.48522 0.00721376 0)
(1.48556 0.00290224 0)
(1.48524 -0.00124872 0)
(1.48426 -0.00523457 0)
(1.48265 -0.00904705 0)
(1.48043 -0.0126761 0)
(1.47765 -0.0161037 0)
(1.47426 -0.0193201 0)
(1.47046 -0.0222915 0)
(1.46596 -0.0250347 0)
(1.46149 -0.0274509 0)
(1.45562 -0.0297131 0)
(1.45159 -0.0313658 0)
(1.44256 -0.0334493 0)
(1.45715 0.0311874 0)
(1.46266 0.0266816 0)
(1.46684 0.0222946 0)
(1.47014 0.0181085 0)
(1.47275 0.0140842 0)
(1.47468 0.0101901 0)
(1.47591 0.00642292 0)
(1.47644 0.00278935 0)
(1.47631 -0.000705094 0)
(1.47553 -0.00405613 0)
(1.47414 -0.00725682 0)
(1.47215 -0.0102991 0)
(1.46962 -0.0131689 0)
(1.4665 -0.0158587 0)
(1.46299 -0.0183418 0)
(1.4588 -0.0206336 0)
(1.45463 -0.0226529 0)
(1.44914 -0.024546 0)
(1.44537 -0.0259318 0)
(1.43689 -0.0276879 0)
(1.44859 0.0256503 0)
(1.45406 0.0219899 0)
(1.45838 0.0184193 0)
(1.46185 0.0150063 0)
(1.46461 0.0117222 0)
(1.46667 0.00854403 0)
(1.46804 0.0054705 0)
(1.46872 0.00250775 0)
(1.46874 -0.000339194 0)
(1.46813 -0.00306652 0)
(1.46692 -0.00566859 0)
(1.46512 -0.0081391 0)
(1.46279 -0.0104671 0)
(1.45989 -0.0126472 0)
(1.4566 -0.0146586 0)
(1.45267 -0.0165146 0)
(1.44875 -0.0181504 0)
(1.44356 -0.0196856 0)
(1.43999 -0.0208113 0)
(1.43195 -0.0222434 0)
(1.44169 0.0200322 0)
(1.44713 0.0171996 0)
(1.45156 0.014434 0)
(1.45516 0.0117873 0)
(1.45803 0.00923884 0)
(1.46021 0.00677218 0)
(1.46168 0.00438735 0)
(1.46248 0.00208955 0)
(1.46263 -0.000117058 0)
(1.46215 -0.0022294 0)
(1.46108 -0.00424304 0)
(1.45942 -0.00615326 0)
(1.45725 -0.00795183 0)
(1.45453 -0.00963515 0)
(1.45141 -0.0111874 0)
(1.44768 -0.0126196 0)
(1.44395 -0.013882 0)
(1.439 -0.0150682 0)
(1.43559 -0.0159386 0)
(1.42788 -0.01705 0)
(1.4365 0.0143509 0)
(1.44191 0.0123323 0)
(1.44643 0.010363 0)
(1.45012 0.00847774 0)
(1.45308 0.00666134 0)
(1.45533 0.00490288 0)
(1.45689 0.00320296 0)
(1.45778 0.00156557 0)
(1.45802 -6.17587e-06 0)
(1.45764 -0.00151002 0)
(1.45667 -0.00294278 0)
(1.45512 -0.00430122 0)
(1.45307 -0.00557945 0)
(1.45047 -0.00677542 0)
(1.44749 -0.00787757 0)
(1.4439 -0.00889515 0)
(1.4403 -0.00979086 0)
(1.43553 -0.0106356 0)
(1.43224 -0.0112525 0)
(1.42479 -0.0120481 0)
(1.43305 0.00864934 0)
(1.43844 0.00742654 0)
(1.44301 0.00624239 0)
(1.44677 0.005112 0)
(1.44978 0.00402345 0)
(1.45208 0.00296964 0)
(1.45369 0.0019511 0)
(1.45463 0.000970283 0)
(1.45493 2.9033e-05 0)
(1.45462 -0.000871294 0)
(1.45372 -0.00172874 0)
(1.45225 -0.00254156 0)
(1.45027 -0.00330599 0)
(1.44775 -0.00402141 0)
(1.44486 -0.00467983 0)
(1.44137 -0.00528939 0)
(1.43786 -0.00582274 0)
(1.4332 -0.0063324 0)
(1.42998 -0.00669444 0)
(1.4227 -0.00718237 0)
(1.43133 0.00291869 0)
(1.43672 0.00249426 0)
(1.44132 0.00209218 0)
(1.44511 0.00171238 0)
(1.44814 0.00134826 0)
(1.45046 0.000996427 0)
(1.45209 0.000656745 0)
(1.45306 0.000329876 0)
(1.45339 1.63095e-05 0)
(1.45311 -0.000283572 0)
(1.45224 -0.00056909 0)
(1.45081 -0.000839735 0)
(1.44886 -0.00109419 0)
(1.44639 -0.00133248 0)
(1.44354 -0.00155139 0)
(1.4401 -0.00175486 0)
(1.43663 -0.00193136 0)
(1.43204 -0.0021032 0)
(1.42885 -0.00222005 0)
(1.42165 -0.0023884 0)
(1.51465 0.257277 1.21701e-22)
(1.53896 0.233411 0)
(1.55741 0.20847 3.6316e-22)
(1.56776 0.182557 1.0979e-20)
(1.5667 0.154981 -4.31769e-20)
(1.54838 0.125927 0)
(1.50655 0.0937544 -5.52505e-20)
(1.42939 0.0626541 0)
(1.32653 0.0287068 -6.56254e-20)
(1.14065 0.0181381 1.01292e-21)
(1.49397 0.23964 -1.52861e-21)
(1.51929 0.220003 -4.11867e-24)
(1.54069 0.199565 4.13376e-24)
(1.55658 0.178722 -5.51756e-21)
(1.56573 0.156656 9.6372e-21)
(1.56292 0.134327 9.47791e-22)
(1.5481 0.108699 0)
(1.50099 0.0844252 4.60238e-20)
(1.45232 0.0537546 0)
(1.29187 0.0292869 6.41304e-20)
(1.47362 0.222074 3.63194e-21)
(1.49876 0.205557 0)
(1.52148 0.18856 1.9621e-23)
(1.54024 0.171682 -4.92386e-21)
(1.55593 0.153988 -1.0595e-20)
(1.5622 0.136871 0)
(1.56635 0.11695 -2.77968e-20)
(1.53838 0.0972781 -4.71047e-20)
(1.52747 0.0733572 0)
(1.40667 0.0420674 -6.3798e-20)
(1.45492 0.205091 -1.85993e-21)
(1.47914 0.191031 6.98786e-21)
(1.50206 0.176713 0)
(1.52179 0.16273 -1.02091e-21)
(1.54114 0.148219 -3.7296e-22)
(1.55179 0.134237 1.02012e-21)
(1.56709 0.118629 2.73892e-20)
(1.55169 0.101346 9.19682e-22)
(1.56235 0.0848308 3.47367e-20)
(1.48471 0.0548082 0)
(1.43819 0.188959 0)
(1.4612 0.176825 -6.83616e-21)
(1.48361 0.164591 -6.93688e-21)
(1.50314 0.152641 4.37999e-22)
(1.52393 0.140503 -1.86438e-22)
(1.53645 0.128351 3.77346e-22)
(1.55692 0.116228 1.09387e-20)
(1.5514 0.100871 1.49788e-21)
(1.57118 0.0900499 -8.98246e-21)
(1.53009 0.0651417 -3.52969e-20)
(1.42324 0.173671 3.41348e-21)
(1.44504 0.163073 5.34478e-22)
(1.46659 0.152501 -2.57693e-21)
(1.48543 0.142037 3.66414e-22)
(1.50618 0.131801 -6.09229e-21)
(1.51966 0.120994 0)
(1.54131 0.111603 -1.23231e-20)
(1.54369 0.0982631 3.85042e-22)
(1.56467 0.0904518 -4.52026e-20)
(1.54957 0.0713647 6.16465e-20)
(1.40974 0.159123 -3.42698e-21)
(1.43049 0.149807 -6.06832e-21)
(1.45105 0.140619 7.98135e-21)
(1.46915 0.131359 -1.32493e-20)
(1.48905 0.122669 -3.83823e-21)
(1.50319 0.113058 -4.89053e-21)
(1.52366 0.105461 -1.57674e-22)
(1.53165 0.0941271 5.37714e-22)
(1.55037 0.0874059 1.84082e-20)
(1.55136 0.0734642 -2.63914e-20)
(1.39746 0.145188 0)
(1.41732 0.137002 1.35154e-20)
(1.43691 0.129004 -1.27774e-21)
(1.45438 0.120812 6.13881e-21)
(1.47306 0.113333 -2.84573e-21)
(1.48762 0.10485 1.24763e-20)
(1.50598 0.0982653 -3.82051e-21)
(1.51737 0.0888352 0)
(1.53329 0.0824388 0)
(1.54284 0.0724334 0)
(1.38628 0.131777 0)
(1.40538 0.124612 -1.32045e-20)
(1.42405 0.11765 -7.9628e-22)
(1.44099 0.110447 8.35367e-21)
(1.45841 0.10391 1.21842e-20)
(1.4731 0.0965118 -8.33269e-21)
(1.4894 0.0905389 4.79354e-21)
(1.50242 0.0828105 -2.31831e-22)
(1.51611 0.0766243 0)
(1.52931 0.0693127 -2.70263e-21)
(1.37613 0.118842 5.13946e-22)
(1.39455 0.112599 7.64734e-21)
(1.41239 0.106541 1.14575e-20)
(1.42883 0.100261 -4.23102e-22)
(1.44513 0.0944989 1.13148e-21)
(1.45968 0.0881313 -1.34971e-20)
(1.47436 0.0826508 1.01965e-20)
(1.4878 0.0763224 -3.9407e-22)
(1.49995 0.0704435 0)
(1.51401 0.06487 2.74492e-21)
(1.36695 0.106324 0)
(1.38476 0.100921 8.20975e-21)
(1.40186 0.0956631 8.82846e-22)
(1.4178 0.0902398 0)
(1.43318 0.0851627 0)
(1.44739 0.0797357 1.21188e-20)
(1.4609 0.0747501 -8.41334e-21)
(1.47406 0.0695112 -3.37081e-22)
(1.48518 0.0640703 2.56527e-22)
(1.49876 0.0596309 2.10301e-23)
(1.35873 0.0941726 0)
(1.37598 0.089537 -1.58589e-20)
(1.39243 0.0850023 -1.58054e-20)
(1.40787 0.0803642 2.20661e-21)
(1.4225 0.0759255 -1.37488e-21)
(1.43624 0.0713273 -8.81204e-22)
(1.44891 0.0668697 1.53984e-21)
(1.46146 0.0624817 8.69904e-21)
(1.47187 0.0575794 6.05425e-22)
(1.48447 0.0539307 -1.42021e-22)
(1.35146 0.0823468 0)
(1.36818 0.0784141 8.62847e-21)
(1.38407 0.0745433 -8.77832e-22)
(1.39902 0.0706188 8.75163e-22)
(1.41304 0.0667883 0)
(1.42626 0.0629139 0)
(1.43829 0.0590111 0)
(1.45016 0.0553178 -9.79091e-21)
(1.46001 0.0510058 8.44844e-21)
(1.47153 0.0479594 0)
(1.34511 0.0708072 0)
(1.36137 0.0675205 5.67825e-21)
(1.37676 0.0642665 6.97896e-21)
(1.39126 0.060991 8.48712e-21)
(1.40476 0.0577436 -1.55884e-21)
(1.41747 0.0545095 8.71537e-21)
(1.42899 0.0511695 -6.93358e-21)
(1.44019 0.0480737 0)
(1.4496 0.0443641 1.66214e-21)
(1.46009 0.0418163 -7.47973e-21)
(1.33968 0.0595139 -1.33778e-21)
(1.35553 0.0568252 -4.63034e-21)
(1.3705 0.0541499 -9.02286e-21)
(1.38457 0.0514693 -5.98389e-21)
(1.39765 0.0487809 0)
(1.40989 0.0461254 -1.09471e-20)
(1.42098 0.0433395 1.00735e-20)
(1.43158 0.0407802 -9.29905e-22)
(1.44062 0.0376643 -4.29637e-21)
(1.4502 0.0355563 1.1376e-20)
(1.33515 0.0484282 1.34319e-21)
(1.35065 0.0462978 -3.7132e-21)
(1.36526 0.044169 3.13312e-21)
(1.37897 0.0420401 -7.40694e-21)
(1.39168 0.0398863 0)
(1.40352 0.0377646 0)
(1.41425 0.0355154 1.00474e-21)
(1.42435 0.0334533 -9.18612e-21)
(1.43308 0.0309162 -4.64345e-21)
(1.44189 0.0292121 -4.15793e-21)
(1.33152 0.0375143 0)
(1.34671 0.0359094 6.01474e-21)
(1.36102 0.0342988 -2.08668e-21)
(1.37443 0.0326867 6.67429e-21)
(1.38685 0.0310433 1.73968e-21)
(1.39836 0.029422 -1.26892e-21)
(1.40881 0.0276892 2.30709e-21)
(1.41851 0.026097 6.32026e-21)
(1.42699 0.0241238 0)
(1.43519 0.0228008 0)
(1.32876 0.0267355 0)
(1.34371 0.0256341 2.49764e-21)
(1.35779 0.0245211 -4.3597e-21)
(1.37096 0.023401 0)
(1.38316 0.0222477 -3.33644e-21)
(1.39443 0.0211021 -1.30761e-21)
(1.40467 0.019866 -3.51051e-21)
(1.41408 0.0187225 -8.97332e-22)
(1.42238 0.0172977 5.18656e-22)
(1.43013 0.0163366 3.54504e-22)
(1.32688 0.0160397 0)
(1.34166 0.0154379 -2.50694e-21)
(1.35557 0.0148197 -2.16219e-21)
(1.36858 0.0141853 2.86261e-21)
(1.38063 0.0135161 1.53559e-21)
(1.39175 0.0128371 1.44466e-21)
(1.40186 0.0120875 5.90852e-21)
(1.41108 0.0113798 -4.04465e-21)
(1.41929 0.0104896 9.02194e-22)
(1.42676 0.00987103 0)
(1.32592 0.00535861 0)
(1.3406 0.00521561 1.24957e-21)
(1.35443 0.00505812 -1.17566e-21)
(1.36736 0.00488356 1.08927e-21)
(1.37934 0.00468358 0)
(1.39037 0.00446568 -1.49854e-21)
(1.40042 0.00420874 1.17139e-21)
(1.40956 0.00395097 9.41064e-22)
(1.41773 0.00361852 0)
(1.42508 0.00336157 0)
(1.09309 0.423841 0)
(1.08363 0.460931 -1.16446e-19)
(1.07705 0.504302 0)
(1.07034 0.555425 -3.69632e-19)
(1.06102 0.61346 1.46607e-19)
(1.04454 0.675265 7.51842e-21)
(1.00846 0.728794 8.5254e-20)
(0.923273 0.742013 -2.72536e-20)
(0.735245 0.646208 0)
(0.360862 0.327551 5.70549e-20)
(1.14184 0.428696 2.10293e-19)
(1.13856 0.469507 1.16426e-19)
(1.13954 0.512467 -9.98685e-20)
(1.13983 0.562852 1.24424e-19)
(1.13741 0.619671 -8.38746e-20)
(1.12724 0.678483 2.76371e-20)
(1.09452 0.7259 -9.523e-20)
(1.00561 0.729067 -1.56046e-19)
(0.800688 0.622321 -3.75886e-20)
(0.388153 0.306111 -7.77073e-20)
(1.19273 0.428091 -8.53633e-20)
(1.19568 0.469177 8.49328e-20)
(1.20237 0.511438 9.98506e-20)
(1.20838 0.560599 9.70766e-20)
(1.2118 0.615097 9.18634e-20)
(1.20632 0.669336 8.28968e-20)
(1.17441 0.708745 3.01093e-20)
(1.0788 0.700425 4.96844e-20)
(0.854208 0.58356 1.86463e-21)
(0.406827 0.27722 -1.77678e-21)
(1.245 0.422475 1.7132e-19)
(1.25297 0.462427 -8.4917e-20)
(1.2641 0.503167 0)
(1.27478 0.550007 0)
(1.28267 0.60074 0)
(1.27975 0.648726 3.31391e-20)
(1.24573 0.678099 -6.58539e-21)
(1.13926 0.657394 0)
(0.892891 0.532351 -1.59933e-20)
(0.415861 0.242656 3.37589e-20)
(1.29611 0.411863 -2.3112e-20)
(1.30837 0.449739 1.01132e-19)
(1.32318 0.488284 0)