/*--------------------------------*- C++ -*----------------------------------*\
| =========                 |                                                 |
| \\      /  F ield         | OpenFOAM: The Open Source CFD Toolbox           |
|  \\    /   O peration     | Version:  4.1                                   |
|   \\  /    A nd           | Web:      www.OpenFOAM.org                      |
|    \\/     M anipulation  |                                                 |
\*---------------------------------------------------------------------------*/
FoamFile
{
    version     2.0;
    format      ascii;
    class       volScalarField;
    location    "14.7";
    object      p;
}
// * * * * * * * * * * * * * * * * * * * * * * * * * * * * * * * * * * * * * //

dimensions      [0 2 -2 0 0 0 0];

internalField   nonuniform List<scalar> 
2000
(
-0.142817
-0.132413
-0.123091
-0.114428
-0.106533
-0.099178
-0.0917949
-0.0850724
-0.0770603
-0.0738291
-0.161874
-0.147769
-0.136035
-0.125228
-0.115051
-0.105268
-0.0956585
-0.08643
-0.0768948
-0.0701112
-0.184801
-0.166425
-0.152016
-0.138529
-0.125125
-0.111873
-0.0989389
-0.0865789
-0.0745853
-0.0639509
-0.211486
-0.188299
-0.170794
-0.153573
-0.135551
-0.117607
-0.100472
-0.0845184
-0.069494
-0.056572
-0.240877
-0.212616
-0.191213
-0.168601
-0.144377
-0.120701
-0.0988116
-0.078982
-0.0611311
-0.0456187
-0.270995
-0.237751
-0.210931
-0.180932
-0.149202
-0.119228
-0.0924111
-0.0688087
-0.0480991
-0.030044
-0.298681
-0.261048
-0.226635
-0.187457
-0.147591
-0.111333
-0.0798172
-0.0526762
-0.0292573
-0.00865902
-0.320013
-0.278751
-0.234699
-0.185279
-0.137409
-0.0953815
-0.0596671
-0.0293909
-0.00341598
0.0195733
-0.330999
-0.28652
-0.231737
-0.172068
-0.116966
-0.070013
-0.0308058
0.0020944
0.0303006
0.0552123
-0.328162
-0.28045
-0.214907
-0.146129
-0.0850741
-0.0342526
0.00761938
0.0425322
0.0724983
0.0986427
-0.064121
-0.0678211
-0.0690819
-0.069619
-0.0697533
-0.0694354
-0.0686481
-0.0674138
-0.0658166
-0.0640618
-0.0659695
-0.0694359
-0.0705589
-0.0710151
-0.0710814
-0.070689
-0.0698058
-0.0684252
-0.0665967
-0.0646896
-0.0695332
-0.0725048
-0.0733711
-0.0736478
-0.0735583
-0.0730017
-0.0719154
-0.070255
-0.0679478
-0.0654586
-0.0745265
-0.0767821
-0.0772432
-0.0772145
-0.0768618
-0.0760393
-0.0746357
-0.0725962
-0.0695832
-0.0649866
-0.0806432
-0.0819904
-0.0818613
-0.0813604
-0.0806107
-0.0794212
-0.0775928
-0.0749812
-0.0710397
-0.065328
-0.0876492
-0.0879023
-0.0869448
-0.0857491
-0.0844243
-0.0827463
-0.0804202
-0.0771982
-0.0724275
-0.0638785
-0.0954907
-0.0944209
-0.0923459
-0.0901755
-0.0880203
-0.0856707
-0.0827153
-0.0787955
-0.0739664
-0.0616624
-0.104401
-0.101609
-0.0981836
-0.0947094
-0.0914339
-0.0881862
-0.0844501
-0.0796531
-0.0752646
-0.0605305
-0.114761
-0.109959
-0.10482
-0.0997722
-0.0951669
-0.0908163
-0.0861415
-0.0806069
-0.0757984
-0.0618969
-0.127317
-0.120007
-0.112881
-0.106108
-0.0999857
-0.0943304
-0.0884891
-0.0826408
-0.0763205
-0.0673909
-0.0623182
-0.060156
-0.0577399
-0.0551246
-0.0523179
-0.0493359
-0.0461975
-0.0429205
-0.0395311
-0.0360555
-0.0325081
-0.0289123
-0.025295
-0.0216845
-0.0181098
-0.0145989
-0.0111818
-0.0078889
-0.00471559
-0.00157208
-0.0633289
-0.0610812
-0.0585546
-0.055867
-0.0529961
-0.0499502
-0.0467465
-0.0434014
-0.039957
-0.0364145
-0.0327957
-0.0291252
-0.0254302
-0.021741
-0.0180906
-0.014513
-0.0110445
-0.00772067
-0.00454924
-0.00148451
-0.0651575
-0.0626739
-0.0599707
-0.0571671
-0.0541864
-0.0510301
-0.0477115
-0.0442711
-0.0407102
-0.0370421
-0.0332945
-0.0294911
-0.0256588
-0.0218304
-0.0180449
-0.0143465
-0.0107844
-0.00740621
-0.00423777
-0.00130826
-0.0686612
-0.0644094
-0.0616009
-0.0587349
-0.0556114
-0.0522877
-0.0488798
-0.0453246
-0.0416088
-0.0377878
-0.0338825
-0.0299133
-0.0259096
-0.0219088
-0.0179562
-0.0141071
-0.0104265
-0.00698207
-0.00382316
-0.00105414
-0.0695633
-0.0670404
-0.0634242
-0.0601202
-0.0569909
-0.0536895
-0.0501092
-0.0463548
-0.0424822
-0.0385029
-0.0344289
-0.0302842
-0.0261022
-0.021925
-0.0178048
-0.0138074
-0.0100124
-0.00651279
-0.00339293
-0.000805188
-0.071106
-0.0696047
-0.0653166
-0.0616685
-0.0583113
-0.0548318
-0.0511233
-0.0472377
-0.043219
-0.0390819
-0.0348415
-0.0305268
-0.0261765
-0.0218397
-0.0175754
-0.0134602
-0.00958373
-0.00606495
-0.00302036
-0.000605833
-0.0717222
-0.0720782
-0.0669767
-0.0624524
-0.0590085
-0.0555971
-0.0518259
-0.0478073
-0.0436553
-0.039389
-0.0350134
-0.0305601
-0.0260758
-0.0216197
-0.0172563
-0.0130765
-0.0091725
-0.00568937
-0.00275371
-0.000515105
-0.0721162
-0.0738869
-0.0683194
-0.0631596
-0.0595681
-0.0560944
-0.052184
-0.0480204
-0.0437515
-0.03938
-0.0348998
-0.0303495
-0.0257814
-0.0212654
-0.0168641
-0.0126868
-0.0088135
-0.00542125
-0.0026009
-0.000540904
-0.0725436
-0.0738648
-0.0678598
-0.0627299
-0.0592059
-0.0556263
-0.0516266
-0.0474657
-0.0432278
-0.0388751
-0.0344031
-0.029867
-0.0253193
-0.0208423
-0.0164888
-0.0123911
-0.00859973
-0.00532966
-0.00259118
-0.000656944
-0.0756823
-0.0732908
-0.0672122
-0.0627011
-0.0588607
-0.0547647
-0.05055
-0.0463805
-0.0421879
-0.0379054
-0.0335299
-0.0291172
-0.0247026
-0.0203744
-0.0161668
-0.0122297
-0.00857583
-0.00544401
-0.00275706
-0.000832212
-0.0647891
-0.0621812
-0.0604216
-0.0580594
-0.0548569
-0.0512304
-0.0474978
-0.0437157
-0.0398286
-0.0358255
-0.0317234
-0.0275877
-0.0234485
-0.0194027
-0.0154693
-0.011804
-0.00838604
-0.00545513
-0.00286993
-0.000960558
-0.0600935
-0.0580564
-0.0559514
-0.053261
-0.0501045
-0.0467947
-0.0434494
-0.0400338
-0.036498
-0.032854
-0.0291231
-0.0253683
-0.0216123
-0.0179473
-0.0143818
-0.0110609
-0.00794621
-0.00525873
-0.00282908
-0.000988831
-0.0515013
-0.0515777
-0.0497005
-0.0469514
-0.0441138
-0.0413737
-0.038622
-0.0357438
-0.0326965
-0.0295167
-0.026239
-0.0229289
-0.019607
-0.0163587
-0.0131888
-0.0102264
-0.00743023
-0.00498883
-0.00274323
-0.000970377
-0.0411609
-0.0434577
-0.0424735
-0.0401362
-0.0377831
-0.0356626
-0.0335538
-0.031269
-0.0287572
-0.0260732
-0.0232686
-0.0204149
-0.0175334
-0.0147023
-0.0119247
-0.00931341
-0.00683134
-0.00463436
-0.00258789
-0.000908697
-0.0301954
-0.0341511
-0.0344296
-0.0329248
-0.0312154
-0.0297282
-0.0282653
-0.0265996
-0.0246561
-0.0224935
-0.0201776
-0.0177887
-0.0153512
-0.0129379
-0.0105503
-0.00828955
-0.0061214
-0.00418128
-0.00235357
-0.000822462
-0.0186561
-0.0240388
-0.0257656
-0.0253468
-0.0244113
-0.0235847
-0.0227719
-0.0217444
-0.0203988
-0.0187846
-0.0169748
-0.015061
-0.0130716
-0.011079
-0.00908109
-0.00717448
-0.00532264
-0.00365687
-0.00206573
-0.00073236
-0.00685388
-0.0136126
-0.0167678
-0.0174973
-0.0174128
-0.017287
-0.0171374
-0.0167599
-0.0160303
-0.0149838
-0.0136941
-0.0122636
-0.0107252
-0.00915542
-0.00754665
-0.0059981
-0.00446522
-0.00308835
-0.00174601
-0.000643518
0.00478304
-0.00321819
-0.00764474
-0.00948118
-0.0102855
-0.0109026
-0.0114338
-0.0117104
-0.0116019
-0.0111321
-0.010371
-0.00942892
-0.00834278
-0.00719569
-0.00597497
-0.00478591
-0.00357392
-0.00249384
-0.00140817
-0.000553237
0.0159792
0.00697781
0.00145627
-0.00142658
-0.00313742
-0.00452807
-0.00575041
-0.00667508
-0.00718033
-0.00728444
-0.00705223
-0.00659783
-0.00596136
-0.00523227
-0.00439574
-0.00356231
-0.00267083
-0.00188694
-0.00106243
-0.000456229
0.0265674
0.0168445
0.0103876
0.00650613
0.00388016
0.00170514
-0.000200837
-0.0017525
-0.00284987
-0.00351156
-0.0037976
-0.00382058
-0.0036241
-0.0033009
-0.00283951
-0.00235062
-0.00177523
-0.00127823
-0.000715916
-0.000346536
0.0363862
0.0262435
0.0189971
0.0141387
0.0105974
0.00765401
0.00509477
0.00295414
0.00130062
0.000111508
-0.000669597
-0.00114858
-0.00137347
-0.00143579
-0.0013339
-0.00117136
-0.000902544
-0.000676221
-0.000373149
-0.000221013
0.0452716
0.0349801
0.0270784
0.0213095
0.0168826
0.0132017
0.0100346
0.00735634
0.0051945
0.00351947
0.0022778
0.00137407
0.000755166
0.000334573
9.92722e-05
-4.13685e-05
-6.39238e-05
-8.8986e-05
-3.75149e-05
-8.31472e-05
0.0531341
0.0429101
0.0344881
0.0278881
0.0226339
0.018271
0.0145538
0.011396
0.00878033
0.00666803
0.00500848
0.00371766
0.00273852
0.00199047
0.00144549
0.00102636
0.000732904
0.000474369
0.000287148
5.54108e-05
0.060005
0.0499543
0.0411276
0.0338004
0.0278084
0.0228351
0.0186298
0.0150501
0.0120361
0.00953692
0.00750561
0.00586711
0.00456444
0.00351965
0.00269551
0.00202109
0.00148147
0.0010031
0.000595377
0.000177732
0.0659997
0.0560945
0.046953
0.0390308
0.0324124
0.0269066
0.0222712
0.0183199
0.0149582
0.0121198
0.00976247
0.00781447
0.00622519
0.00491255
0.00384085
0.00293211
0.00217381
0.00148577
0.000879981
0.000268915
0.0711993
0.0613255
0.0519374
0.0435656
0.0364484
0.0304922
0.0254803
0.0212011
0.0175379
0.0144052
0.0117668
0.00954655
0.00770747
0.00615532
0.0048681
0.00374613
0.00279819
0.00191192
0.00113326
0.00032403
0.0755591
0.0656007
0.0560262
0.0473477
0.0398646
0.0335473
0.0282173
0.0236562
0.0197384
0.0163579
0.0134846
0.0110324
0.00898259
0.0072229
0.00575405
0.00444462
0.00333767
0.0022721
0.00134791
0.000350024
0.0789777
0.0688707
0.0591566
0.0502841
0.0425545
0.0359711
0.0303928
0.0256066
0.021488
0.0179124
0.0148561
0.0122197
0.0100037
0.00807661
0.00646436
0.00500214
0.00376991
0.00255561
0.00151618
0.000358389
0.0814242
0.0711552
0.0613211
0.0523177
0.0444286
0.037666
0.031915
0.0269695
0.0227104
0.0189992
0.0158168
0.013052
0.0107204
0.00867531
0.00696292
0.00539253
0.00407263
0.00275237
0.00163121
0.0003588
0.0828584
0.0724693
0.0625239
0.0534235
0.0454369
0.0385722
0.0327235
0.0276899
0.0233537
0.0195707
0.016321
0.0134893
0.0110957
0.00898974
0.00722297
0.00559802
0.00422954
0.00285741
0.0016893
0.00036218
0.119319
0.0761464
0.0399458
0.0104713
-0.012556
-0.0299768
-0.042609
-0.0521197
-0.0580256
-0.0699938
0.136482
0.0947605
0.0594093
0.0298963
0.00620295
-0.0130258
-0.0272618
-0.0406265
-0.0479786
-0.0625265
0.152527
0.112537
0.0784298
0.0491613
0.0252002
0.00419103
-0.0115414
-0.0279315
-0.036127
-0.050367
0.167345
0.128933
0.0959149
0.0667675
0.0426478
0.0204225
0.00396649
-0.0133924
-0.0222544
-0.036807
0.180943
0.143849
0.111718
0.0826855
0.0585903
0.0359075
0.019236
0.00161625
-0.0086065
-0.0239958
0.193396
0.157445
0.126121
0.0973573
0.0734869
0.0507739
0.0338093
0.0157768
0.00423613
-0.0115133
0.204759
0.169842
0.139304
0.110951
0.0873665
0.0647185
0.0473779
0.0290752
0.0168827
0.00122758
0.215044
0.181072
0.15128
0.123396
0.100076
0.0775634
0.0600324
0.0418399
0.0293845
0.013957
0.224235
0.191118
0.161997
0.134604
0.11155
0.0893167
0.0718026
0.0539374
0.0412195
0.0261393
0.232342
0.199999
0.171455
0.14457
0.121794
0.0999596
0.0825051
0.0650122
0.0519832
0.0374166
0.239373
0.207766
0.179712
0.153348
0.130833
0.109435
0.091989
0.0748676
0.0615732
0.0475645
0.245393
0.214459
0.186851
0.161012
0.138729
0.117746
0.100287
0.0834988
0.0700356
0.05644
0.250486
0.220173
0.193
0.167664
0.145607
0.124981
0.107551
0.0909953
0.0774697
0.064044
0.25479
0.225051
0.198309
0.173425
0.151616
0.131271
0.113941
0.097498
0.0840054
0.0705687
0.258434
0.229219
0.202897
0.178403
0.156862
0.136737
0.119551
0.103171
0.0897539
0.0763032
0.261502
0.232762
0.206822
0.182676
0.161386
0.141471
0.124412
0.108143
0.0947607
0.0814382
0.264015
0.235706
0.210086
0.186271
0.165175
0.145504
0.128509
0.112445
0.0990035
0.0859371
0.265912
0.238003
0.21264
0.189154
0.168193
0.148802
0.131809
0.116007
0.102427
0.0896179
0.26706
0.239519
0.214374
0.191208
0.170361
0.151254
0.134254
0.118702
0.104978
0.0923388
0.267394
0.240097
0.215103
0.192181
0.171442
0.15256
0.135591
0.120227
0.10644
0.0939036
0.763156
0.764306
0.757263
0.743706
0.725006
0.7008
0.668525
0.624597
0.570394
0.539614
0.70845
0.705312
0.689649
0.669011
0.644679
0.614451
0.574777
0.521844
0.457089
0.418356
0.647136
0.638091
0.615802
0.589677
0.560162
0.523909
0.476929
0.415381
0.340669
0.294494
0.575569
0.562109
0.536066
0.506299
0.472489
0.430808
0.377237
0.308106
0.224535
0.172192
0.49914
0.482171
0.453602
0.421099
0.383678
0.337337
0.27824
0.203177
0.112255
0.0559071
0.422337
0.402063
0.371528
0.336858
0.296455
0.246259
0.182641
0.10351
0.00738961
-0.0490306
0.347531
0.324248
0.292356
0.256165
0.213521
0.160452
0.0933844
0.0105556
-0.0825991
-0.140027
0.276319
0.250679
0.218189
0.181278
0.137291
0.0826344
0.0139485
-0.0691175
-0.157852
-0.214689
0.210242
0.183197
0.150963
0.114165
0.0698356
0.0149718
-0.0530281
-0.133722
-0.216741
-0.271186
0.150285
0.123499
0.0922392
0.0560007
0.0123904
-0.0411109
-0.106513
-0.182431
-0.257665
-0.308809
1.06124
1.06976
1.07971
1.09113
1.10402
1.11827
1.1334
1.14804
1.16129
1.17945
1.05813
1.06601
1.07548
1.08637
1.09859
1.112
1.12611
1.13951
1.15133
1.16868
1.05159
1.05818
1.0667
1.07654
1.08742
1.09917
1.11124
1.12216
1.13126
1.14677
1.04103
1.04566
1.05279
1.06109
1.07001
1.07931
1.08837
1.09562
1.10068
1.11338
1.02564
1.02767
1.03298
1.03929
1.04566
1.05179
1.05692
1.05936
1.05909
1.068
1.00451
1.00324
1.00635
1.0103
1.01361
1.01589
1.01625
1.01285
1.006
1.01016
0.976725
0.97153
0.972233
0.973543
0.97331
0.971088
0.965904
0.955686
0.941095
0.939558
0.940574
0.931046
0.929543
0.928222
0.924131
0.916923
0.90557
0.887727
0.864334
0.856276
0.895633
0.882097
0.879049
0.874757
0.86616
0.853421
0.83537
0.809237
0.77614
0.760903
0.836011
0.823841
0.820981
0.81329
0.799703
0.781133
0.756008
0.721073
0.677568
0.654704
1.00021
1.00094
1.00225
1.00375
1.00524
1.00675
1.00835
1.01008
1.01196
1.01404
1.01632
1.01884
1.02165
1.02479
1.02832
1.03229
1.03676
1.04182
1.04752
1.05397
1.00021
1.00094
1.00221
1.00367
1.00511
1.00657
1.00813
1.0098
1.01163
1.01364
1.01584
1.01827
1.02098
1.02399
1.02737
1.03117
1.03543
1.04023
1.04561
1.05167
1.00022
1.00093
1.00212
1.00347
1.00483
1.0062
1.00765
1.00922
1.01093
1.01278
1.01482
1.01706
1.01954
1.0223
1.02537
1.02879
1.0326
1.03685
1.04154
1.04676
1.00024
1.00088
1.00193
1.00314
1.00436
1.00558
1.00688
1.00827
1.00977
1.01139
1.01315
1.01507
1.01719
1.01952
1.02207
1.02488
1.02795
1.0313
1.03485
1.03871
1.00023
1.00079
1.00165
1.00265
1.00365
1.00466
1.00571
1.00683
1.00805
1.00932
1.01068
1.01214
1.01372
1.01541
1.0172
1.01909
1.02105
1.02306
1.02492
1.02673
1.0002
1.00063
1.00123
1.00194
1.00267
1.00339
1.00413
1.0049
1.00566
1.00644
1.00725
1.00808
1.0089
1.00969
1.01042
1.01103
1.01144
1.01157
1.01107
1.00997
1.00012
1.00037
1.00065
1.001
1.00136
1.00169
1.00201
1.00227
1.00247
1.00263
1.00272
1.0027
1.00252
1.00211
1.0014
1.00027
0.998574
0.996154
0.992591
0.987723
0.999988
0.999967
0.999888
0.999802
0.999702
0.999545
0.99929
0.998933
0.998461
0.997833
0.997008
0.995906
0.994462
0.992538
0.990039
0.986701
0.982366
0.976539
0.968816
0.958366
0.999764
0.999336
0.998861
0.998331
0.997701
0.996933
0.996013
0.994919
0.993614
0.992021
0.990075
0.987642
0.984644
0.980821
0.97611
0.969976
0.962463
0.952365
0.939883
0.922061
0.999583
0.998609
0.99769
0.996695
0.995438
0.993906
0.992157
0.990165
0.987855
0.985081
0.981756
0.977647
0.972676
0.966346
0.958678
0.9485
0.936365
0.919358
0.900107
0.87133
0.999408
0.998027
0.99678
0.995296
0.993311
0.990907
0.988245
0.985291
0.981917
0.977885
0.973093
0.967212
0.960182
0.951293
0.940638
0.926582
0.909836
0.885909
0.857077
0.808855
0.999249
0.997802
0.996269
0.994095
0.99117
0.987822
0.984307
0.980496
0.976173
0.971022
0.964978
0.957636
0.949011
0.938212
0.925515
0.908962
0.889679
0.863242
0.833441
0.791963
1.00011
0.999054
0.996993
0.993434
0.988998
0.984517
0.9802
0.97561
0.970379
0.964138
0.956914
0.948239
0.938227
0.925828
0.911538
0.893249
0.872594
0.845346
0.816148
0.776696
0.999748
1.00139
0.999666
0.993687
0.986792
0.980902
0.975868
0.970583
0.964444
0.95709
0.948702
0.938761
0.927477
0.913659
0.898047
0.878394
0.85683
0.828923
0.800024
0.761177
1.00045
1.00471
1.00228
0.992947
0.983384
0.976386
0.97099
0.965184
0.958183
0.949743
0.940258
0.929153
0.916735
0.901679
0.884976
0.864241
0.842007
0.813617
0.78498
0.746999
1.00096
1.00759
1.0039
0.990375
0.978507
0.971167
0.965747
0.959408
0.951497
0.942021
0.931544
0.919401
0.905967
0.889843
0.872218
0.850656
0.827918
0.799365
0.771043
0.734252
0.993935
0.993087
0.98871
0.97916
0.970871
0.96565
0.960513
0.953275
0.944273
0.933856
0.922554
0.909528
0.895179
0.878141
0.859713
0.837567
0.814441
0.786039
0.757995
0.722594
0.999273
0.974545
0.952323
0.949991
0.956571
0.959287
0.955253
0.946687
0.936436
0.925257
0.913344
0.899623
0.884461
0.866672
0.847541
0.825041
0.8016
0.773591
0.745724
0.711801
0.992074
0.949415
0.921801
0.930062
0.947726
0.955407
0.951382
0.94113
0.929458
0.917404
0.904774
0.890331
0.874341
0.855889
0.8361
0.813393
0.78966
0.762162
0.734369
0.701856
0.991092
0.943494
0.914411
0.924997
0.945091
0.953117
0.947912
0.936269
0.923479
0.91056
0.897077
0.881848
0.865038
0.846025
0.825662
0.802852
0.778866
0.751894
0.724129
0.692832
0.996226
0.963148
0.941216
0.945317
0.954177
0.954203
0.945436
0.932626
0.919111
0.905284
0.890712
0.87454
0.856903
0.837389
0.816549
0.793665
0.769484
0.742939
0.715226
0.684859
0.987025
0.989789
0.998368
0.992213
0.977379
0.961059
0.945827
0.931421
0.917141
0.90216
0.886204
0.868873
0.850365
0.830331
0.809084
0.786065
0.76175
0.73543
0.707837
0.678036
1.00122
1.02594
1.03982
1.02258
0.9922
0.965239
0.945573
0.930095
0.915363
0.899522
0.882461
0.864153
0.844977
0.824518
0.803029
0.779846
0.75552
0.729224
0.701879
0.672252
1.00915
1.04317
1.05728
1.03505
0.998264
0.966517
0.944779
0.928794
0.9138
0.897325
0.87943
0.86034
0.840671
0.819849
0.79822
0.774838
0.750583
0.724171
0.69717
0.667453
1.01191
1.05193
1.06696
1.04017
0.998561
0.964448
0.942474
0.926872
0.912003
0.895157
0.876694
0.857038
0.837014
0.815892
0.794151
0.770597
0.746423
0.719942
0.693274
0.663589
1.00816
1.05724
1.08233
1.05045
0.999073
0.959814
0.937186
0.922751
0.908634
0.891896
0.873371
0.853604
0.833441
0.812152
0.79029
0.766687
0.742553
0.716225
0.689781
0.660529
0.971387
0.983054
1.01869
1.01859
0.994136
0.964798
0.940709
0.921825
0.905023
0.887836
0.869741
0.850413
0.830313
0.808941
0.786888
0.763317
0.73915
0.713142
0.686783
0.65818
1.00298
0.931946
0.870178
0.885653
0.925662
0.945293
0.93877
0.919601
0.899696
0.881929
0.864972
0.846849
0.827252
0.806051
0.783919
0.760487
0.73632
0.710689
0.684395
0.656348
1.00918
0.934202
0.856864
0.864181
0.907979
0.933707
0.932098
0.916273
0.897647
0.879924
0.862728
0.844602
0.825085
0.804056
0.781933
0.758629
0.734449
0.709079
0.682839
0.655184
0.96701
0.984858
1.02844
1.01553
0.974076
0.941936
0.92484
0.912726
0.898708
0.881809
0.863306
0.844029
0.824083
0.80311
0.781032
0.757789
0.733557
0.708308
0.682089
0.654706
0.757116
0.698199
0.638087
0.571306
0.499281
0.426911
0.35672
0.289639
0.226884
0.169625
0.751191
0.689594
0.626235
0.562436
0.494536
0.425645
0.359264
0.296254
0.237554
0.184146
0.739289
0.679892
0.615286
0.553832
0.490697
0.425748
0.362801
0.303401
0.248331
0.197872
0.726724
0.671172
0.606743
0.546172
0.486832
0.425907
0.366252
0.31001
0.258121
0.210385
0.7146
0.662515
0.599293
0.539271
0.482902
0.426029
0.369795
0.316401
0.267264
0.221926
0.703073
0.653935
0.592684
0.533482
0.479402
0.426231
0.373436
0.322696
0.275908
0.232605
0.692036
0.645415
0.586647
0.528756
0.476557
0.426568
0.377061
0.328839
0.284072
0.242457
0.681395
0.636981
0.581113
0.525088
0.474584
0.427187
0.380603
0.334721
0.29171
0.251489
0.671241
0.628757
0.576079
0.522411
0.473531
0.428141
0.383958
0.34016
0.298698
0.259656
0.661816
0.620986
0.571566
0.520572
0.473286
0.429384
0.38702
0.344984
0.304879
0.266915
0.653506
0.614077
0.567667
0.519356
0.473596
0.430775
0.3897
0.349088
0.310125
0.273036
0.646661
0.608436
0.564487
0.51851
0.474116
0.432105
0.391928
0.352454
0.314528
0.278349
0.641293
0.60416
0.561992
0.517769
0.474503
0.433159
0.393668
0.355128
0.318155
0.282841
0.637227
0.601051
0.560033
0.516952
0.474548
0.433812
0.394928
0.357195
0.321083
0.286569
0.63406
0.598587
0.558285
0.515938
0.474206
0.434061
0.395774
0.358768
0.323428
0.289649
0.631307
0.596217
0.556485
0.514776
0.473651
0.434074
0.396349
0.359986
0.325319
0.292194
0.628775
0.593813
0.554671
0.513661
0.473124
0.43404
0.396775
0.360943
0.326825
0.294259
0.62655
0.591572
0.552962
0.512618
0.472587
0.433879
0.396949
0.361538
0.327866
0.295785
0.625104
0.590021
0.551694
0.511736
0.471968
0.433441
0.396694
0.36159
0.328274
0.296619
0.624545
0.589426
0.551193
0.51131
0.471519
0.432942
0.396184
0.361199
0.32806
0.29668
)
;

boundaryField
{
    bottom
    {
        type            symmetryPlane;
    }
    right
    {
        type            fixedValue;
        value           uniform 0;
    }
    top
    {
        type            symmetryPlane;
    }
    left
    {
        type            fixedValue;
        value           uniform 1;
    }
    cylinder
    {
        type            zeroGradient;
    }
    defaultFaces
    {
        type            empty;
    }
}


// ************************************************************************* //
