/*--------------------------------*- C++ -*----------------------------------*\
| =========                 |                                                 |
| \\      /  F ield         | OpenFOAM: The Open Source CFD Toolbox           |
|  \\    /   O peration     | Version:  4.1                                   |
|   \\  /    A nd           | Web:      www.OpenFOAM.org                      |
|    \\/     M anipulation  |                                                 |
\*---------------------------------------------------------------------------*/
FoamFile
{
    version     2.0;
    format      ascii;
    class       surfaceScalarField;
    location    "11.7";
    object      phi;
}
// * * * * * * * * * * * * * * * * * * * * * * * * * * * * * * * * * * * * * //

dimensions      [0 3 -1 0 0 0 0];

internalField   nonuniform List<scalar> 
3890
(
0.000249631
0.00168223
-0.00193186
0.0019084
0.000243561
-0.00190233
0.00556876
-0.00432511
0.000664745
0.0115397
-0.0110406
0.00506972
0.0197372
-0.0189398
0.0107423
0.0297108
-0.0270825
0.0171089
0.0408031
-0.0347327
0.0236404
0.0524512
-0.0414442
0.0297961
0.0640704
-0.0473461
0.0357269
-0.0512867
0.0402842
0.0750729
0.000509999
0.00117223
0.00303725
-0.00228369
0.00817937
-0.00946723
0.0159673
-0.0188285
0.0258086
-0.0287811
0.0367729
-0.0380468
0.0479535
-0.0459133
0.0587092
-0.0521999
0.0684216
-0.0570585
-0.0604458
0.0775807
0.000869668
0.000302561
0.00445835
-0.00587236
0.011158
-0.0161669
0.0204005
-0.028071
0.0309617
-0.0393423
0.0416098
-0.048695
0.0515066
-0.05581
0.0602625
-0.0609558
0.0678676
-0.0646636
-0.0673241
0.0747459
0.00132213
-0.00101957
0.00607565
-0.0106259
0.0141026
-0.0241938
0.0240046
-0.0379731
0.0341236
-0.0494613
0.0433418
-0.0579131
0.0512338
-0.0637021
0.0578947
-0.0676166
0.0636515
-0.0704205
-0.0725992
0.0689266
0.00185006
-0.00286963
0.0077097
-0.0164855
0.0164939
-0.032978
0.0260709
-0.04755
0.0348221
-0.0582126
0.0421143
-0.0652053
0.0480401
-0.0696279
0.0530142
-0.0725907
0.0574735
-0.0748797
-0.0769616
0.061836
0.00241571
-0.00528534
0.00910866
-0.0231785
0.0178808
-0.0417502
0.0263244
-0.0559936
0.0332909
-0.0651791
0.0387138
-0.0706281
0.0430291
-0.0739433
0.0467428
-0.0763044
0.0502423
-0.0783792
-0.0804486
0.0537292
0.00295396
-0.0082393
0.0100193
-0.0302438
0.0180637
-0.0497946
0.0249417
-0.0628715
0.0301188
-0.0703563
0.0339415
-0.0744508
0.0369757
-0.0769775
0.0396789
-0.0790075
0.0423134
-0.0810137
-0.0831327
0.0449975
0.00337992
-0.0116192
0.0102804
-0.0371443
0.0171162
-0.0566304
0.0223211
-0.0680764
0.0258866
-0.0739218
0.0283772
-0.0769414
0.0303491
-0.0789494
0.0321543
-0.0808128
0.0339544
-0.0828138
-0.0849725
0.0357942
0.00361319
-0.0152324
0.00986226
-0.0433934
0.0152673
-0.0620355
0.0188764
-0.0716854
0.0210446
-0.07609
0.0224072
-0.0783039
0.0234405
-0.0799828
0.0243906
-0.0817629
0.0253392
-0.0837623
-0.085935
0.0263017
0.00360666
-0.0188391
0.00886714
-0.0486538
0.012792
-0.0659603
0.0149552
-0.0738486
0.0159175
-0.0770524
0.01629
-0.0786764
0.0164473
-0.0801401
0.0165488
-0.0818644
0.016633
-0.0838466
0.0166988
-0.0860008
-0.00054799
0.000547991
-0.00167
0.00112201
-0.00310474
0.00143474
-0.00470794
0.00160321
-0.00640165
0.00169371
-0.00815056
0.00174891
-0.00994665
0.00179608
-0.0117988
0.0018522
-0.0137296
0.00193077
0.00204795
-0.0157776
-0.000488596
0.00103659
-0.00149464
0.00212805
-0.00277681
0.00271691
-0.00418998
0.00301637
-0.00565005
0.00315379
-0.00711272
0.00321158
-0.00856022
0.00324358
-0.00999373
0.00328571
-0.0114291
0.00336612
0.00352394
-0.0129051
-0.00038513
0.00142172
-0.00118949
0.00293242
-0.00219765
0.00372507
-0.00326852
0.00408723
-0.00431029
0.00419556
-0.00526383
0.00416512
-0.00609324
0.00407299
-0.00678355
0.00397603
-0.00733897
0.00392154
0.00396317
-0.0077782
-0.000266586
0.0016883
-0.00082484
0.00349067
-0.00148921
0.00438945
-0.00212569
0.00472371
-0.00263755
0.00470743
-0.00295171
0.00447929
-0.00301024
0.00413151
-0.00277042
0.00373622
-0.00221233
0.00336345
0.00313759
-0.00138676
-0.000161263
0.00184957
-0.000473612
0.00380302
-0.000773326
0.00468916
-0.000933906
0.00488429
-0.000857123
0.00463064
-0.000460473
0.00408264
0.000331756
0.00333928
0.00159218
0.0024758
0.00338712
0.00156851
0.000791246
0.00573346
-8.8242e-05
0.00193781
-0.000182411
0.00389719
-0.000120631
0.00462738
0.000225106
0.00453856
0.000960876
0.00389487
0.00217993
0.00286358
0.00397203
0.00154719
0.00642028
2.7541e-05
0.00961657
-0.00162778
-0.00338092
0.0137887
-5.08099e-05
0.00198862
4.85812e-05
0.0037978
0.000484755
0.00419121
0.00141581
0.0036075
0.00297409
0.0023366
0.00527672
0.000560945
0.00842374
-0.00159982
0.0124925
-0.00404119
0.0175024
-0.00663775
-0.00980557
0.0239271
-3.35414e-05
0.00202216
0.000268374
0.00349588
0.0011617
0.00329789
0.00285931
0.00190989
0.00554439
-0.000348478
0.00936504
-0.00325971
0.0144024
-0.00663721
0.0206571
-0.0102958
0.0280446
-0.0140252
-0.0187271
0.0369661
4.69381e-06
0.00201747
0.00058296
0.00291762
0.00210964
0.0017712
0.00487614
-0.000856611
0.00910861
-0.00458095
0.0149173
-0.00906837
0.0222818
-0.0140017
0.0309982
-0.0190122
0.0409477
-0.0239747
-0.0294318
0.0516523
8.56094e-05
0.0011009
0.00353685
0.00774996
0.0139113
0.0219518
0.0315905
0.0423743
0.0541265
0.0649789
-0.0171114
0.00133381
-0.0184399
0.00132855
-0.0197352
0.00129526
-0.0209878
0.00125262
-0.0221893
0.00120146
-0.0233302
0.0011409
-0.0244007
0.00107054
-0.0253911
0.000990361
-0.0262918
0.000900729
-0.0270943
0.000802468
-0.0277912
0.00069689
-0.028377
0.000585855
-0.0288489
0.000471842
-0.0292069
0.000357997
-0.029455
0.000248174
-0.029602
0.000146975
-0.0296616
5.96321e-05
-0.0296515
-1.01784e-05
-0.0295897
-6.18006e-05
-9.80962e-05
-0.0140688
0.00249754
-0.0152512
0.002511
-0.0164267
0.00247065
-0.0175873
0.00241323
-0.0187252
0.00233936
-0.0198309
0.00224665
-0.0208943
0.0021339
-0.0219045
0.0020006
-0.0228507
0.00184695
-0.0237222
0.00167392
-0.0245087
0.00148342
-0.0252012
0.00127838
-0.0257924
0.00106304
-0.0262775
0.000843099
-0.0266553
0.000625951
-0.0269291
0.000420753
-0.0271078
0.000238331
-0.0272084
9.04088e-05
-0.0272541
-1.6033e-05
-8.1127e-05
-0.00861079
0.00333014
-0.00948868
0.00338889
-0.0103987
0.00338068
-0.0113376
0.00335207
-0.0122996
0.00330136
-0.0132769
0.00322405
-0.0142604
0.00311734
-0.0152394
0.00297965
-0.0162028
0.00281026
-0.0171381
0.00260931
-0.0180327
0.00237798
-0.0188732
0.00211884
-0.0196463
0.00183616
-0.0203396
0.0015364
-0.0209425
0.00122882
-0.0214476
0.000925876
-0.0218525
0.000643265
-0.0221638
0.000401652
-0.0224066
0.000226807
0.000132573
-0.00172378
0.00366716
-0.00217059
0.0038357
-0.00268339
0.00389349
-0.00325668
0.00392535
-0.0038946
0.00393929
-0.0045951
0.00392455
-0.00535216
0.0038744
-0.00615848
0.00378597
-0.00700583
0.00365761
-0.00788449
0.00348797
-0.00878299
0.00327648
-0.00968806
0.00302391
-0.0105847
0.00273277
-0.0114561
0.00240779
-0.0122839
0.00205666
-0.0130495
0.00169149
-0.013735
0.00132874
-0.0143254
0.000992102
-0.0148243
0.000725632
0.00059088
0.00585581
0.00354481
0.00585075
0.00384076
0.00576945
0.00397478
0.00562372
0.00407109
0.00539911
0.0041639
0.00508885
0.0042348
0.00469405
0.0042692
0.00421685
0.00426317
0.00365924
0.00421522
0.00302442
0.00412279
0.00231751
0.00398339
0.00154572
0.0037957
0.000718517
0.00355997
-0.000151695
0.003278
-0.00104931
0.00295427
-0.00195426
0.00259644
-0.00284214
0.00221662
-0.00368241
0.00183237
-0.00443757
0.0014808
0.00125679
0.0142305
0.00310302
0.0145267
0.00354462
0.0147636
0.00373784
0.0149626
0.00387213
0.0150989
0.00402761
0.0151595
0.00417415
0.0151426
0.00428607
0.0150455
0.00436027
0.0148635
0.00439729
0.0145924
0.00439387
0.01423
0.00434577
0.0137756
0.0042501
0.0132301
0.00410551
0.0125961
0.00391194
0.0118792
0.00367118
0.0110885
0.00338721
0.0102378
0.00306723
0.00934961
0.0027206
0.00846781
0.0023626
0.0020733
0.0243629
0.00266717
0.024698
0.00320956
0.0250253
0.00341052
0.0253631
0.00353435
0.0256748
0.00371594
0.0259489
0.00389998
0.0261842
0.00405075
0.0263735
0.00417103
0.0265061
0.00426469
0.0265726
0.00432737
0.026565
0.00435336
0.0264764
0.00433874
0.0263005
0.00428138
0.0260325
0.00417998
0.0256684
0.00403527
0.0252064
0.00384917
0.0246461
0.00362754
0.02399
0.00337671
0.0232437
0.00310888
0.00283768
0.0370717
0.00256158
0.0372146
0.00306657
0.0374524
0.00317275
0.0377434
0.00324336
0.0380433
0.00341607
0.0383564
0.00358684
0.038681
0.0037262
0.0390035
0.00384846
0.0393104
0.00395786
0.0395903
0.0040474
0.039833
0.00411069
0.0400285
0.00414329
0.0401669
0.00414299
0.0402397
0.00410712
0.040238
0.00403699
0.0401553
0.00393182
0.0399817
0.00380119
0.039716
0.00364244
0.0393321
0.00349275
0.00329829
0.0514768
0.00273712
0.0515337
0.00300971
0.0517991
0.00290732
0.0520975
0.00294499
0.0524152
0.00309838
0.0527699
0.00323211
0.0531491
0.00334697
0.0535388
0.00345874
0.053932
0.00356464
0.0543236
0.00365585
0.0547066
0.0037277
0.0550743
0.00377555
0.0554186
0.00379872
0.0557331
0.00379259
0.056008
0.0037621
0.0562389
0.00370087
0.0564118
0.00362836
0.0565289
0.0035253
0.0565672
0.00345446
0.00334381
0.0652853
0.00243076
0.0659894
0.00230562
0.0665828
0.00231389
0.0670972
0.00243058
0.0676204
0.00257524
0.0681409
0.00271154
0.0686493
0.00283866
0.069151
0.00295703
0.0696516
0.003064
0.0701542
0.00315331
0.0706585
0.0032234
0.0711653
0.00326871
0.0716717
0.00329236
0.0721775
0.00328677
0.0726758
0.00326376
0.0731675
0.00320921
0.0736416
0.00315427
0.074101
0.00306584
0.0745396
0.00301587
0.00292912
0.0903286
0.00337503
-0.0912729
0.0893187
0.00331556
0.0884066
0.00322596
0.0876388
0.00319834
0.0869999
0.00321419
0.0864635
0.00324795
0.0860106
0.00329156
0.0856301
0.00333746
0.0853128
0.00338134
0.0850508
0.00341534
0.0848346
0.00343955
0.084658
0.00344529
0.0845114
0.00343898
0.0843901
0.00340813
0.084283
0.00337082
0.0841874
0.00330482
0.0840921
0.00324957
0.0839963
0.0031616
0.0838961
0.00311613
0.00302725
0.100287
0.00352113
-0.100433
0.100013
0.00358936
0.0996619
0.00357692
0.0993174
0.00354282
0.099004
0.00352765
0.09872
0.0035319
0.0984642
0.00354743
0.0982381
0.00356351
0.0980412
0.00357826
0.0978726
0.0035839
0.0977281
0.00358405
0.0976057
0.00356774
0.0974989
0.00354577
0.0974062
0.0035008
0.0973197
0.00345737
0.0972394
0.00338515
0.0971568
0.00333216
0.0970756
0.00324272
0.0969894
0.00320239
0.00311273
0.107246
0.00365572
-0.107381
0.107205
0.0036308
0.107169
0.00361243
0.107137
0.00357557
0.107118
0.00354643
0.107115
0.00353455
0.107126
0.00353688
0.107148
0.00354136
0.107179
0.00354661
0.10722
0.00354333
0.107266
0.0035377
0.107317
0.0035166
0.107369
0.00349435
0.10742
0.00344979
0.107465
0.00341184
0.107506
0.00334485
0.107537
0.00330122
0.10756
0.00321964
0.107574
0.0031882
0.00310627
0.112673
0.0036761
-0.112693
0.112747
0.00355666
0.112862
0.00349728
0.11299
0.00344791
0.11313
0.00340588
0.113288
0.00337693
0.113461
0.00336354
0.113647
0.0033555
0.113842
0.00335216
0.114042
0.00334267
0.114246
0.00333425
0.11445
0.00331266
0.114651
0.00329351
0.114846
0.00325456
0.115033
0.00322485
0.115209
0.00316881
0.115374
0.00313581
0.115525
0.00306891
0.115667
0.00304572
0.00297851
0.117386
0.00355746
-0.117268
0.117544
0.00339907
0.117737
0.00330395
0.117949
0.00323605
0.118174
0.00318145
0.118413
0.00313785
0.118667
0.00310912
0.118935
0.00308761
0.119213
0.00307399
0.119499
0.00305717
0.119789
0.00304414
0.12008
0.00302108
0.120371
0.00300277
0.120657
0.0029686
0.120938
0.00294436
0.121207
0.00289883
0.12147
0.00287343
0.121718
0.0028212
0.12196
0.00280359
0.0027525
0.121997
0.00336341
-0.121803
0.122203
0.00319328
0.122433
0.00307364
0.122683
0.00298675
0.122944
0.00291951
0.123218
0.00286405
0.123505
0.00282248
0.123804
0.00278877
0.124113
0.00276469
0.12443
0.00274013
0.124753
0.00272118
0.125079
0.00269542
0.125406
0.00267554
0.125731
0.00264402
0.126053
0.00262199
0.126368
0.00258411
0.126678
0.00256289
0.126978
0.00252187
0.127274
0.00250758
0.00246901
0.126805
0.00313632
-0.126578
0.127036
0.00296216
0.127282
0.00282808
0.127542
0.00272648
0.127814
0.00264791
0.128095
0.00258274
0.128386
0.00253102
0.128688
0.00248728
0.128999
0.00245382
0.129317
0.00242204
0.129641
0.00239701
0.129968
0.00236804
0.130298
0.00234544
0.130628
0.00231485
0.130957
0.00229307
0.131281
0.00225997
0.131603
0.00224074
0.131918
0.00220715
0.13223
0.00219475
0.00216424
0.13185
0.00288629
-0.1316
0.132098
0.00271416
0.132351
0.00257465
0.132613
0.00246431
0.132884
0.00237732
0.133162
0.00230481
0.133447
0.00224561
0.13374
0.00219446
0.13404
0.0021536
0.134346
0.00211591
0.134658
0.00208565
0.134972
0.0020537
0.135289
0.0020284
0.135606
0.00199793
0.135923
0.0019757
0.136238
0.0019455
0.136551
0.00192727
0.13686
0.00189838
0.137168
0.00188714
0.00186163
0.137025
0.00261444
-0.136754
0.13729
0.00245009
0.137552
0.00231177
0.137818
0.00219827
0.138089
0.0021067
0.138364
0.00202978
0.138644
0.00196601
0.138928
0.00191032
0.139217
0.00186462
0.13951
0.001823
0.139806
0.0017891
0.140105
0.00175518
0.140405
0.00172805
0.140705
0.00169779
0.141006
0.00167536
0.141304
0.00164731
0.141601
0.00162993
0.141895
0.00160442
0.142188
0.00159415
0.00157227
0.14218
0.00232038
-0.141886
0.142463
0.00216674
0.142741
0.00203386
0.143017
0.00192197
0.143294
0.00182993
0.143572
0.00175201
0.143851
0.00168678
0.144132
0.00162953
0.144415
0.00158182
0.144699
0.00153866
0.144985
0.00150319
0.145271
0.0014689
0.145558
0.00144131
0.145844
0.00141215
0.146129
0.00139031
0.146411
0.00136469
0.146693
0.00134851
0.146971
0.00132629
0.147248
0.00131709
0.00129883
0.147184
0.0020013
-0.146865
0.147491
0.00186003
0.147789
0.0017358
0.148082
0.00162962
0.14837
0.00154113
0.148657
0.00146574
0.148941
0.00140221
0.149224
0.00134643
0.149507
0.00129954
0.149788
0.00125743
0.150068
0.00122264
0.150347
0.00118991
0.150625
0.00116348
0.150901
0.00113681
0.151174
0.00111662
0.151445
0.00109438
0.151713
0.00107998
0.151978
0.00106181
0.152241
0.00105391
0.0010401
0.151988
0.00165612
-0.151642
0.152318
0.00152957
0.152637
0.00141713
0.152946
0.0013203
0.153248
0.00123897
0.153544
0.00116948
0.153836
0.0011107
0.154123
0.00105927
0.154407
0.00101584
0.154687
0.000977327
0.154964
0.000945363
0.155238
0.000916219
0.155509
0.000892537
0.155776
0.000869925
0.15604
0.000852449
0.156299
0.000834848
0.156557
0.000822836
0.156809
0.000809808
0.157059
0.000803446
0.000795215
0.156641
0.00129325
-0.156278
0.156986
0.00118433
0.157317
0.0010867
0.157635
0.00100224
0.157943
0.000930989
0.158242
0.000870229
0.158534
0.000818767
0.158819
0.000774156
0.159098
0.000736407
0.159372
0.000703605
0.159641
0.000676256
0.159905
0.000652402
0.160165
0.000632747
0.160419
0.000615507
0.16067
0.000601572
0.160915
0.000589632
0.161158
0.000580448
0.161394
0.000573439
0.161629
0.000568756
0.000566942
0.161264
0.000935871
-0.160907
0.161602
0.000846603
0.161923
0.000765795
0.16223
0.000695568
0.162524
0.000636156
0.162809
0.000585856
0.163084
0.000543321
0.163351
0.000507055
0.163611
0.000476325
0.163865
0.000450481
0.164112
0.00042876
0.164353
0.000411102
0.16459
0.000396122
0.164821
0.000384823
0.165047
0.000374753
0.165268
0.000368764
0.165486
0.000362493
0.165698
0.000361588
0.165908
0.000358544
0.000363061
0.165924
0.000618011
-0.165606
0.166222
0.000548185
0.166504
0.000484284
0.166771
0.000428461
0.167026
0.000381096
0.16727
0.000341478
0.167506
0.000308103
0.167732
0.000280349
0.167952
0.000256783
0.168164
0.0002379
0.168371
0.00022179
0.168572
0.000210092
0.168769
0.000199594
0.16896
0.000193729
0.169148
0.000187199
0.16933
0.000186379
0.16951
0.000182663
0.169685
0.000186813
0.169858
0.000185152
0.000194664
0.170497
0.000368812
-0.170248
0.170729
0.000316113
0.170946
0.000267479
0.171149
0.0002248
0.171342
0.000188467
0.171525
0.000158537
0.1717
0.000133431
0.171867
0.000113204
0.172028
9.59742e-05
0.172182
8.30109e-05
0.172333
7.16521e-05
0.172478
6.47175e-05
0.17262
5.78408e-05
0.172758
5.5984e-05
0.172893
5.21684e-05
0.173024
5.48218e-05
0.173154
5.29716e-05
0.17328
6.01608e-05
0.173406
5.94759e-05
7.16128e-05
0.174666
0.000197059
-0.174495
0.174824
0.000158741
0.174968
0.000123338
0.175101
9.22487e-05
0.175223
6.57222e-05
0.175338
4.42303e-05
0.175445
2.62815e-05
0.175546
1.22468e-05
0.175641
2.97648e-07
0.175732
-8.09519e-06
0.17582
-1.57858e-05
0.175904
-1.94537e-05
0.175986
-2.37259e-05
0.176065
-2.33103e-05
0.176142
-2.53387e-05
0.176219
-2.12295e-05
0.176293
-2.19479e-05
0.176368
-1.40698e-05
0.176441
-1.41987e-05
-2.18091e-06
0.178084
9.22159e-05
-0.177979
0.178177
6.63273e-05
0.178257
4.27446e-05
0.178327
2.24191e-05
0.178388
4.87959e-06
0.178441
-9.01611e-06
0.178488
-2.0493e-05
0.17853
-2.92879e-05
0.178567
-3.68718e-05
0.1786
-4.18358e-05
0.178631
-4.65099e-05
0.17866
-4.82054e-05
0.178687
-5.06216e-05
0.178713
-4.94377e-05
0.178738
-5.0395e-05
0.178763
-4.65825e-05
0.178788
-4.67465e-05
0.178814
-4.02334e-05
0.17884
-4.01331e-05
-3.06546e-05
0.180504
3.59779e-05
-0.180448
0.180549
2.09357e-05
0.180583
8.61224e-06
0.180607
-9.66977e-07
0.180622
-1.01646e-05
0.18063
-1.6815e-05
0.180632
-2.23948e-05
0.180629
-2.6596e-05
0.180622
-3.02853e-05
0.180613
-3.25739e-05
0.180601
-3.47681e-05
0.180588
-3.53648e-05
0.180574
-3.6428e-05
0.18056
-3.55415e-05
0.180546
-3.5889e-05
0.180533
-3.36454e-05
0.18052
-3.36174e-05
0.18051
-2.99727e-05
0.180499
-2.98466e-05
-2.46391e-05
0.181763
-0.181727
0.181784
0.181792
0.181791
0.181781
0.181764
0.181742
0.181715
0.181685
0.181652
0.181618
0.181582
0.181546
0.18151
0.181474
0.181441
0.181407
0.181377
0.181347
0.0894921
0.0155437
-0.088337
0.0906972
0.0250966
0.091972
0.0345194
0.0932682
0.0437013
0.094624
0.0523734
0.095899
0.0605611
0.0968681
0.0679574
0.097534
0.0740801
0.0948568
0.0802579
0.0786568
0.0920909
0.0144904
-0.0910376
0.0932387
0.0239489
0.0945168
0.0332413
0.0958888
0.0423292
0.0973109
0.0509513
0.0989293
0.0589427
0.100144
0.0667431
0.101959
0.0722645
0.102138
0.0800794
0.0803616
0.0949472
0.0135306
-0.0939874
0.0960546
0.0228415
0.0973001
0.0319958
0.0987477
0.0408815
0.100192
0.0495071
0.102032
0.0571029
0.103571
0.0652035
0.105548
0.0702883
0.107335
0.0782919
0.080316
0.0979543
0.012638
-0.0970617
0.0990616
0.0217342
0.100305
0.030752
0.101829
0.0393574
0.103366
0.0479709
0.105253
0.055216
0.107125
0.0633315
0.10897
0.0684433
0.111358
0.0759034
0.0789807
0.101031
0.0117833
-0.100176
0.102161
0.0206035
0.103466
0.0294477
0.105061
0.0377619
0.106771
0.0462607
0.108661
0.0533267
0.110792
0.0611999
0.112699
0.0665361
0.115216
0.0733871
0.0769287
0.104108
0.0109388
-0.103264
0.10527
0.0194417
0.106682
0.0280358
0.108363
0.0360814
0.110284
0.0443392
0.112283
0.0513279
0.11463
0.0588526
0.11681
0.064356
0.119385
0.0708121
0.074511
0.107123
0.0100841
-0.106268
0.108325
0.0182397
0.109863
0.0264981
0.111667
0.0342767
0.113805
0.0422014
0.11604
0.0490935
0.118609
0.0562827
0.121136
0.0618299
0.123886
0.0680614
0.0718194
0.110027
0.00921027
-0.109153
0.111283
0.0169836
0.112945
0.0248366
0.114912
0.0323091
0.117262
0.0398513
0.11979
0.0465653
0.122622
0.0534507
0.125511
0.0589411
0.128583
0.0649896
0.0688027
0.112808
0.00831649
-0.111914
0.114128
0.0156637
0.115903
0.023061
0.118046
0.0301658
0.120604
0.0372933
0.123427
0.0437424
0.126566
0.0503121
0.129833
0.0556739
0.133324
0.0614986
0.0653734
0.115499
0.00740717
-0.11459
0.116881
0.0142817
0.118757
0.0211854
0.121062
0.0278607
0.123818
0.034537
0.126913
0.0406479
0.130377
0.046848
0.134028
0.0520225
0.137974
0.0575525
0.0614619
0.118184
0.00649164
-0.117269
0.119614
0.0128514
0.121571
0.0192285
0.124009
0.0254228
0.126943
0.0316031
0.130274
0.0373165
0.134043
0.043079
0.13806
0.0480062
0.142445
0.0531674
0.0570415
0.120979
0.00558173
-0.12007
0.122435
0.0113955
0.12445
0.0172135
0.126988
0.0228849
0.130068
0.0285236
0.133596
0.0337883
0.137622
0.039053
0.141963
0.0436653
0.146735
0.0483946
0.0521345
0.123991
0.00470345
-0.123113
0.125448
0.00993868
0.127497
0.0151641
0.130109
0.0202733
0.133302
0.0253306
0.136992
0.0300977
0.141226
0.0348197
0.145845
0.0390461
0.150942
0.0432975
0.0467984
0.127235
0.00388479
-0.126416
0.128673
0.00850018
0.130741
0.0130958
0.133414
0.0176004
0.136704
0.0220406
0.140542
0.0262602
0.144956
0.0304061
0.149822
0.0341792
0.1552
0.0379196
0.0410918
0.130563
0.00313942
-0.129818
0.131978
0.0070854
0.134065
0.0110089
0.136805
0.0148606
0.140197
0.0186478
0.14419
0.022268
0.148789
0.0258069
0.153901
0.029067
0.159555
0.0322657
0.0350407
0.133689
0.00245802
-0.133008
0.135092
0.00568265
0.137212
0.00888916
0.140034
0.0120385
0.143548
0.0151337
0.147712
0.0181039
0.152519
0.0209998
0.157893
0.0236934
0.163843
0.0263149
0.0286364
0.136335
0.00181435
-0.135691
0.137745
0.00427299
0.139913
0.0067208
0.142827
0.0091242
0.146473
0.0114882
0.150814
0.0137626
0.155837
0.0159769
0.161476
0.018054
0.167731
0.0200605
0.0218726
0.13838
0.00118929
-0.137755
0.139805
0.00284862
0.142022
0.00450338
0.145019
0.00612688
0.148782
0.00772533
0.153279
0.00926585
0.158492
0.0107637
0.164367
0.0121789
0.170891
0.0135368
0.0147842
0.139827
0.00058526
-0.139223
0.141255
0.00142048
0.143502
0.00225601
0.146554
0.00307484
0.150398
0.0038815
0.155004
0.00465964
0.160352
0.00541551
0.166398
0.00613288
0.173117
0.00681808
0.00745367
0.140614
-0.140029
0.142035
0.144291
0.147365
0.151247
0.155907
0.161322
0.167455
0.174273
0.0421819
0.0522372
-0.0462577
-0.0481613
0.0362287
0.0510141
-0.0450609
0.0306582
0.050243
-0.0446726
0.025381
0.050015
-0.0447378
0.0202875
0.0502461
-0.0451526
0.0153156
0.050924
-0.045952
0.0104541
0.0519162
-0.0470548
0.0058333
0.0520774
-0.0474566
0.00195299
0.0471986
-0.0433183
0.027075
-0.025122
0.04016
0.0581049
-0.0460277
0.0344068
0.0567673
0.0289174
0.0557325
0.0237309
0.0552015
0.0187773
0.0551997
0.0139829
0.0557184
0.00934173
0.0565573
0.00502224
0.0563969
0.00155646
0.0506644
0.0286315
0.0372522
0.0636122
-0.0427595
0.0318057
0.0622138
0.026542
0.0609962
0.0215433
0.0602002
0.0167939
0.0599491
0.0122418
0.0602704
0.00790158
0.0608976
0.00398786
0.0603106
0.00105762
0.0535946
0.0296891
0.0332901
0.068724
-0.0384019
0.0282734
0.0672305
0.0233925
0.0658772
0.018726
0.0648666
0.0142925
0.0643826
0.0100739
0.064489
0.00612473
0.0648468
0.00272843
0.0637069
0.000454806
0.0558682
0.0301439
0.0283606
0.0733719
-0.0330085
0.0238413
0.0717497
0.0194543
0.0702642
0.0152481
0.0690727
0.0112489
0.0683818
0.00746957
0.0682684
0.00401048
0.0683059
0.00123111
0.0664863
-0.000223193
0.0573225
0.0299207
0.022494
0.0774412
-0.0265632
0.0185694
0.0756743
0.0147758
0.0740577
0.0111362
0.0727124
0.00767667
0.0718413
0.0044427
0.0715023
0.00159788
0.0711507
-0.000455579
0.0685398
-0.000909743
0.0577767
0.029011
0.0158067
0.0808151
-0.0191806
0.0125631
0.0789179
0.0094417
0.0771791
0.00645334
0.0757007
0.00362413
0.0746706
0.00103439
0.0740921
-0.00106535
0.0732504
-0.00212849
0.0696029
-0.00161456
0.0572628
0.0273964
0.00840453
0.0833964
-0.0109858
0.00591339
0.081409
0.00354343
0.0795491
0.00128279
0.0779613
-0.000843538
0.0767969
-0.00269629
0.0759448
-0.00392801
0.0744822
-0.00395013
0.069625
-0.00229785
0.0556105
0.0250986
0.000386748
0.0852018
-0.00219224
-0.00125407
0.0830498
-0.00282102
0.0811161
-0.00431583
0.0794562
-0.0056704
0.0781515
-0.00668861
0.076963
-0.00693545
0.074729
-0.00576559
0.0684552
-0.00290171
0.0527466
0.0221968
-0.00798248
0.00718354
-0.00877925
-0.00952756
-0.0102115
-0.0107364
-0.0108257
-0.00994534
-0.00745051
-0.00335777
0.033616
0.00318786
-0.0368038
0.0303033
0.0033127
0.026846
0.00345727
0.0232234
0.0036226
0.0194072
0.00381621
0.0153628
0.0040444
0.0110683
0.00429451
0.00660657
0.00446172
0.00244357
0.004163
0.00244357
0.0341761
0.0065046
-0.0374929
0.0307499
0.00673894
0.0271942
0.00701302
0.0234879
0.00732884
0.0196023
0.00770179
0.0155017
0.00814505
0.0111609
0.0086353
0.00665951
0.00896311
0.00246989
0.00835262
0.00491346
0.0352345
0.0100663
-0.0387962
0.0315923
0.0103812
0.027849
0.0107563
0.023983
0.0111948
0.0199645
0.0117203
0.015756
0.0123535
0.0113298
0.0130615
0.00676006
0.0135328
0.00250981
0.0126029
0.00742327
0.0366719
0.0139617
-0.0405674
0.032734
0.0143191
0.0287331
0.0147572
0.0246474
0.0152806
0.0204461
0.0159216
0.01609
0.0167096
0.0115475
0.0176041
0.00688581
0.0181945
0.00255982
0.0169289
0.0099831
0.0383249
0.0182456
-0.0426087
0.0340407
0.0186032
0.029737
0.0190609
0.0253933
0.0196243
0.0209784
0.0203365
0.0164506
0.0212374
0.0117745
0.0222802
0.00701098
0.022958
0.00260699
0.0213328
0.0125901
0.0400075
0.0229299
-0.0446918
0.0353597
0.023251
0.0307345
0.0236862
0.0261173
0.0242415
0.0214776
0.0249762
0.0167718
0.0259432
0.0119615
0.0270905
0.00710258
0.0278169
0.00263583
0.0257996
0.0152259
0.041504
0.0280039
-0.046578
0.0364989
0.0282561
0.0315681
0.028617
0.0266987
0.0291109
0.0218528
0.0298221
0.0169845
0.0308115
0.0120566
0.0320185
0.00712558
0.0327479
0.00262991
0.0302953
0.0178558
0.0427015
0.0334394
-0.048137
0.0373407
0.0336169
0.0321238
0.0338338
0.0270313
0.0342035
0.022011
0.0348424
0.0170139
0.0358085
0.0120046
0.0370278
0.00704377
0.0377087
0.00257258
0.0347665
0.0204284
0.0431976
0.0393411
-0.0490993
0.0375613
0.0392531
0.0321966
0.0391985
0.0269764
0.0394238
0.0218471
0.0399716
0.0167796
0.040876
0.0117467
0.0420607
0.0068195
0.0426359
0.00244764
0.0391383
0.022876
0.0430935
-0.0500101
0.0372857
0.0318117
0.0264977
0.0213167
0.0162407
0.0112466
0.00642593
0.00224596
0.0404555
-0.000111588
0.0405661
-0.000110608
0.0406739
-0.000107827
0.0407745
-0.000100602
0.040864
-8.95114e-05
0.0409387
-7.47034e-05
0.0409945
-5.57537e-05
0.0410263
-3.18299e-05
0.0410265
-2.14159e-07
0.0409969
2.96263e-05
0.0409292
6.76893e-05
0.0408157
0.000113513
0.0406477
0.000168046
0.040415
0.000232686
0.0401057
0.000309215
0.0397059
0.000399806
0.0391987
0.000507238
0.0385639
0.000634758
0.0377774
0.000786565
0.000973538
0.0412979
-0.00022404
0.0414079
-0.000220598
0.0415135
-0.000213412
0.0416112
-0.000198292
0.0416975
-0.000175852
0.0417687
-0.00014592
0.0418206
-0.000107565
0.0418478
-5.91079e-05
0.041844
3.58452e-06
0.0418093
6.43254e-05
0.0417356
0.000141442
0.041615
0.00023414
0.0414387
0.000344355
0.0411964
0.00047491
0.0408763
0.000629386
0.040464
0.000812109
0.0399425
0.00102867
0.0392918
0.00128546
0.0384876
0.00159077
0.00196826
0.0429544
-0.000327762
0.043056
-0.000322172
0.0431535
-0.000310924
0.0432429
-0.000287708
0.0433205
-0.000253373
0.0433821
-0.000207577
0.0434234
-0.000148818
0.0434385
-7.42331e-05
0.0434246
1.74233e-05
0.043377
0.000111955
0.0432886
0.000229836
0.0431514
0.00037135
0.0429563
0.000539427
0.0426929
0.000738302
0.042349
0.000973375
0.04191
0.00125111
0.0413587
0.00157996
0.0406748
0.00196935
0.0398347
0.00243089
0.00300674
0.0453647
-0.000412005
0.0454468
-0.000404269
0.045525
-0.000389113
0.0455949
-0.000357649
0.0456522
-0.000310702
0.0456926
-0.000247901
0.0457111
-0.00016734
0.0457021
-6.52646e-05
0.0456665
5.30531e-05
0.0455936
0.00018489
0.0454771
0.000346305
0.0453091
0.000539378
0.0450802
0.000768266
0.0447798
0.00103872
0.0443952
0.00135794
0.0439117
0.00173462
0.0433117
0.00218
0.042574
0.002707
0.0416771
0.00332781
0.00411646
0.0484472
-0.000459867
0.0484926
-0.000449722
0.0485337
-0.000430235
0.0485662
-0.000390127
0.0485855
-0.00032995
0.0485866
-0.000249027
0.0485648
-0.000145556
0.0485082
-8.70766e-06
0.0484321
0.00012924
0.0483144
0.000302599
0.0481497
0.000510997
0.0479302
0.000758822
0.0476466
0.00105187
0.0472876
0.0013977
0.0468405
0.0018051
0.0462896
0.00228547
0.0456176
0.00285198
0.0448011
0.00352353
0.0438232
0.00430577
0.00533088
0.052108
-0.000447388
0.0520923
-0.000434001
0.0520704
-0.000408399
0.0520383
-0.000357977
0.051991
-0.000282695
0.0519237
-0.000181691
0.0518276
-4.94872e-05
0.051718
0.00010092
0.0515685
0.000278756
0.0513762
0.000494927
0.0511345
0.000752688
0.0508349
0.00105837
0.0504681
0.00141865
0.0500221
0.00184372
0.0494842
0.002343
0.048837
0.00293267
0.0480646
0.00362437
0.0471381
0.00445002
0.0460505
0.00539345
0.00668951
0.0562515
-0.000341862
0.056141
-0.000323518
0.0560217
-0.000289092
0.0558915
-0.000227825
0.0557447
-0.000135891
0.055565
-1.95306e-06
0.0553787
0.000136812
0.0551615
0.000318066
0.054904
0.000536298
0.0546018
0.000797151
0.0542481
0.00110631
0.0538336
0.00147286
0.0533494
0.00190288
0.0527818
0.00241137
0.0521201
0.00300465
0.0513428
0.00370996
0.0504397
0.0045275
0.0493683
0.00552139
0.0481362
0.00662558
0.00824773
0.0607889
-9.88897e-05
0.0605407
-7.52549e-05
0.060276
-2.44148e-05
0.0599969
5.12956e-05
0.0597039
0.00015706
0.0594036
0.000298349
0.0590672
0.000473255
0.0586976
0.000687682
0.0582891
0.000944713
0.0578344
0.00125185
0.0573272
0.00161353
0.0567566
0.00204346
0.0561154
0.0025441
0.0553854
0.0031414
0.0545604
0.00382964
0.0536087
0.00466168
0.0525381
0.00559811
0.0512825
0.00677694
0.0498809
0.00802717
0.00999163
0.0656389
0.00032791
0.0651986
0.000365119
0.0647495
0.000424617
0.0642873
0.000513551
0.0638066
0.000637723
0.063303
0.000801971
0.0627703
0.00100594
0.0622038
0.00125423
0.0615987
0.00154973
0.0609467
0.00190386
0.0602425
0.00231775
0.0594732
0.00281279
0.0586362
0.00338108
0.0577076
0.00406994
0.0566902
0.00484705
0.0555257
0.0058262
0.0542549
0.00686889
0.0527302
0.00830167
0.0511386
0.00961879
0.0120309
0.0708069
0.00105649
0.0701082
0.00106386
0.0694108
0.00112202
0.0687011
0.0012232
0.0679725
0.00136635
0.0672204
0.00155407
0.0664413
0.00178508
0.0656298
0.00206573
0.0647824
0.00239713
0.0638899
0.00279631
0.0629486
0.0032591
0.0619429
0.00381844
0.0608761
0.00444792
0.059717
0.00522905
0.0584977
0.00606632
0.0571413
0.00718264
0.0557682
0.00824197
0.0540994
0.00997046
0.0525525
0.0111656
0.0145734
0.0704422
0.00103392
0.0704552
0.0010509
0.0704566
0.00112064
0.0704523
0.00122745
0.0704432
0.00137545
0.0704292
0.00156811
0.0704136
0.0018006
0.0703987
0.00208069
0.0703892
0.00240659
0.0703854
0.00280017
0.0703974
0.00324702
0.0704233
0.00379259
0.0704866
0.00438464
0.070576
0.00513963
0.0707509
0.00589143
0.0709683
0.0069652
0.0713802
0.00783008
0.0719028
0.00944786
0.0730138
0.0100547
0.0125834
0.0750037
0.0758214
0.000971307
0.0758348
0.00103747
0.0758415
0.00111396
0.0758484
0.00122052
0.0758498
0.00137409
0.0758456
0.00157236
0.0758419
0.00180427
0.0758423
0.00208029
0.0758517
0.00239716
0.0758715
0.00278035
0.0759112
0.00320732
0.0759738
0.00373002