/*--------------------------------*- C++ -*----------------------------------*\
| =========                 |                                                 |
| \\      /  F ield         | OpenFOAM: The Open Source CFD Toolbox           |
|  \\    /   O peration     | Version:  4.1                                   |
|   \\  /    A nd           | Web:      www.OpenFOAM.org                      |
|    \\/     M anipulation  |                                                 |
\*---------------------------------------------------------------------------*/
FoamFile
{
    version     2.0;
    format      ascii;
    class       volScalarField;
    location    "15";
    object      p;
}
// * * * * * * * * * * * * * * * * * * * * * * * * * * * * * * * * * * * * * //

dimensions      [0 2 -2 0 0 0 0];

internalField   nonuniform List<scalar> 
2000
(
-0.181148
-0.16841
-0.156715
-0.145769
-0.135327
-0.125357
-0.115762
-0.106559
-0.0990691
-0.100886
-0.203104
-0.186531
-0.172105
-0.15895
-0.14647
-0.134556
-0.123067
-0.112019
-0.102253
-0.0970839
-0.227879
-0.207136
-0.189836
-0.174248
-0.159265
-0.144668
-0.130282
-0.11609
-0.102454
-0.0904669
-0.255253
-0.230127
-0.209809
-0.191401
-0.173174
-0.154862
-0.136396
-0.117854
-0.0995341
-0.0818262
-0.284582
-0.255026
-0.23148
-0.20961
-0.187094
-0.163867
-0.140246
-0.116664
-0.0936788
-0.0715859
-0.31473
-0.280881
-0.253762
-0.227479
-0.199398
-0.170051
-0.140432
-0.11146
-0.083945
-0.058121
-0.344031
-0.306197
-0.274973
-0.243064
-0.208093
-0.171655
-0.135602
-0.101299
-0.0696469
-0.0406938
-0.370314
-0.328934
-0.292885
-0.254032
-0.211062
-0.167012
-0.124577
-0.0853582
-0.050089
-0.0185154
-0.390994
-0.346589
-0.304888
-0.257918
-0.206321
-0.154738
-0.106475
-0.0630751
-0.0248667
0.00869524
-0.403246
-0.356371
-0.308246
-0.252413
-0.19223
-0.133813
-0.0807072
-0.0340883
0.00627671
0.0410961
-0.0765858
-0.0818324
-0.0839869
-0.0846243
-0.0845825
-0.0840338
-0.0830931
-0.0818689
-0.0804694
-0.0790778
-0.078753
-0.0837072
-0.0855994
-0.0860494
-0.0858396
-0.0851262
-0.0840259
-0.0826339
-0.0810409
-0.0796222
-0.0830868
-0.0873417
-0.0887502
-0.0888133
-0.0882391
-0.0871713
-0.085726
-0.0839738
-0.0819667
-0.0804543
-0.0893404
-0.0925672
-0.0932509
-0.0927081
-0.0915539
-0.0899158
-0.0879069
-0.0855638
-0.082862
-0.0810591
-0.0973052
-0.099217
-0.0989223
-0.0975358
-0.0955692
-0.0931262
-0.0903066
-0.0870988
-0.0833764
-0.0811393
-0.106839
-0.107163
-0.105628
-0.103156
-0.100149
-0.0966767
-0.0928063
-0.0884485
-0.0832928
-0.0801855
-0.11791
-0.116361
-0.113319
-0.109531
-0.105287
-0.100609
-0.0955112
-0.089803
-0.0828348
-0.0781221
-0.130629
-0.126864
-0.122057
-0.116737
-0.111095
-0.105096
-0.0986641
-0.0914812
-0.0824161
-0.0751407
-0.145198
-0.138865
-0.132012
-0.12497
-0.11781
-0.110444
-0.102662
-0.0939227
-0.0825461
-0.0719837
-0.161931
-0.152614
-0.143456
-0.134537
-0.125799
-0.117158
-0.10836
-0.0987508
-0.0867394
-0.0761886
-0.0778425
-0.0761387
-0.0741338
-0.0719068
-0.0694378
-0.0667042
-0.0636942
-0.0603997
-0.0568159
-0.0529431
-0.0487854
-0.0443455
-0.0396345
-0.0347272
-0.0296026
-0.0242994
-0.0188452
-0.0131991
-0.0073706
-0.00206281
-0.0790395
-0.0773298
-0.0752225
-0.0729562
-0.0704692
-0.067715
-0.064679
-0.0613526
-0.0577299
-0.05381
-0.0495964
-0.0450949
-0.0403239
-0.0353333
-0.0301246
-0.0247345
-0.0191935
-0.0134674
-0.00754758
-0.00210126
-0.0812033
-0.0795076
-0.0771945
-0.0748487
-0.0723295
-0.0695381
-0.0664543
-0.0630695
-0.0593759
-0.0553708
-0.0510556
-0.0464383
-0.0415573
-0.0364187
-0.031059
-0.0255126
-0.0198126
-0.013937
-0.0078668
-0.0022052
-0.0840297
-0.0823223
-0.0796776
-0.0772058
-0.0746426
-0.0718006
-0.0686505
-0.0651877
-0.0614026
-0.0572892
-0.0528412
-0.048067
-0.043052
-0.037736
-0.0321884
-0.0264477
-0.0205507
-0.0144931
-0.00824927
-0.00232806
-0.0868437
-0.0854762
-0.0823319
-0.0796248
-0.0769971
-0.0740901
-0.0708545
-0.0672995
-0.0634127
-0.0591753
-0.0545757
-0.0496557
-0.0444897
-0.0389985
-0.0332645
-0.0273302
-0.0212382
-0.0150069
-0.00861929
-0.00247453
-0.0896209
-0.0887493
-0.0848257
-0.0817379
-0.0790167
-0.0760211
-0.0726743
-0.069009
-0.0649992
-0.0606247
-0.0558966
-0.0509823
-0.0455972
-0.0399417
-0.0340561
-0.0279657
-0.0217205
-0.0153632
-0.0088998
-0.00260867
-0.0923278
-0.0920169
-0.0869147
-0.0832788
-0.080416
-0.0772666
-0.0737395
-0.0699335
-0.0657657
-0.0614324
-0.0567672
-0.0515697
-0.046093
-0.0403667
-0.0343948
-0.0282177
-0.0218952
-0.0154905
-0.00904351
-0.00273297
-0.0947046
-0.0947906
-0.0881694
-0.0839384
-0.080884
-0.0774547
-0.0736064
-0.0699005
-0.0659425
-0.0614187
-0.056542
-0.0513817
-0.0459367
-0.0402089
-0.0342319
-0.028059
-0.0217534
-0.0153927
-0.00904587
-0.00285818
-0.0962795
-0.0957362
-0.0877197
-0.0831655
-0.0799714
-0.0766047
-0.0730273
-0.0689386
-0.0646908
-0.0602356
-0.0555016
-0.0504607
-0.0451121
-0.0394813
-0.0336087
-0.0275484
-0.0213623
-0.0151411
-0.0089489
-0.0029918
-0.0977762
-0.0930788
-0.0860461
-0.082059
-0.0779208
-0.073636
-0.069751
-0.0659379
-0.0619757
-0.0577654
-0.0532664
-0.0484648
-0.0433653
-0.0379908
-0.0323771
-0.0265798
-0.0206538
-0.0147081
-0.00874393
-0.00310773
-0.0717835
-0.0723317
-0.0770748
-0.076557
-0.0732996
-0.0697732
-0.066407
-0.0629133
-0.0591487
-0.0551032
-0.0507793
-0.0461737
-0.041292
-0.0361587
-0.0308083
-0.0253029
-0.0196816
-0.0140855
-0.00840667
-0.00322041
-0.0698004
-0.0673463
-0.0706065
-0.0700418
-0.0670824
-0.0639396
-0.0609412
-0.0577984
-0.05438
-0.0506854
-0.0467256
-0.0425013
-0.0380191
-0.0333054
-0.0283915
-0.0233445
-0.0181805
-0.0130811
-0.00781835
-0.00324393
-0.0637573
-0.0612446
-0.0621284
-0.0613535
-0.0591306
-0.0566473
-0.0541662
-0.0515163
-0.0485862
-0.045375
-0.0418982
-0.0381641
-0.0341832
-0.0299853
-0.0255966
-0.0210906
-0.0164577
-0.0119214
-0.00713742
-0.00318085
-0.0537673
-0.0530495
-0.05247
-0.0515297
-0.0501288
-0.0484815
-0.0466581
-0.0445955
-0.0422458
-0.0396094
-0.0366981
-0.0335263
-0.0301087
-0.0264792
-0.0226594
-0.018729
-0.0146548
-0.0106934
-0.00641275
-0.00301892
-0.0412155
-0.0428237
-0.0419496
-0.0410904
-0.0404657
-0.0396948
-0.0386123
-0.0372096
-0.0355019
-0.0334996
-0.0312119
-0.0286542
-0.0258435
-0.0228184
-0.0195969
-0.0162627
-0.0127667
-0.00938038
-0.00563173
-0.00274989
-0.0268408
-0.030846
-0.0306533
-0.0302778
-0.0304472
-0.0305603
-0.0302739
-0.0295865
-0.0285613
-0.0272264
-0.0255907
-0.0236709
-0.0214887
-0.0190835
-0.0164715
-0.0137379
-0.0108272
-0.00800581
-0.00481216
-0.00239898
-0.0118697
-0.0179484
-0.0189683
-0.0194184
-0.0204251
-0.0214021
-0.0219234
-0.0219746
-0.0216462
-0.0209848
-0.0200043
-0.0187235
-0.0171658
-0.0153733
-0.0133647
-0.0112199
-0.00888727
-0.00661121
-0.003981
-0.00200158
0.00260275
-0.00497821
-0.00735891
-0.00882953
-0.0106975
-0.0124951
-0.0137972
-0.0145774
-0.0149356
-0.0149323
-0.0145891
-0.0139282
-0.0129757
-0.011775
-0.0103468
-0.00876576
-0.00699212
-0.0052357
-0.0031617
-0.0015903
0.016016
0.00747013
0.00379348
0.00124635
-0.00147234
-0.00403429
-0.00606787
-0.00754342
-0.00855913
-0.00918336
-0.00944575
-0.00937266
-0.00899339
-0.00835168
-0.00747206
-0.00642255
-0.00517878
-0.0039121
-0.00237341
-0.00119057
0.0281624
0.0190321
0.0142178
0.0106389
0.00711445
0.00385155
0.00114698
-0.000975093
-0.00260595
-0.00381656
-0.00464355
-0.00511782
-0.00527202
-0.00514987
-0.00478047
-0.00422464
-0.00347519
-0.00266565
-0.0016308
-0.000819295
0.0389844
0.0295144
0.0237478
0.019239
0.0149788
0.011083
0.00777272
0.00506167
0.00286672
0.00111769
-0.000227311
-0.00120348
-0.00184673
-0.00220073
-0.00229906
-0.00219603
-0.00190095
-0.00151362
-0.000943873
-0.000485364
0.0484996
0.0388439
0.0323007
0.0269859
0.022073
0.0176147
0.0137657
0.0105273
0.00782422
0.00558881
0.00377562
0.00234585
0.00126055
0.00047608
-4.52379e-05
-0.00035228
-0.000468913
-0.000466859
-0.000319053
-0.000191921
0.0567657
0.0470166
0.0398477
0.0338511
0.0283731
0.0234236
0.0191024
0.0153996
0.0122465
0.00957893
0.00734916
0.00551555
0.00403658
0.00286853
0.0019702
0.00129698
0.000812834
0.000468391
0.000239821
6.1479e-05
0.0638501
0.0540597
0.0463894
0.0398269
0.0338699
0.0284993
0.0237714
0.0196668
0.0161225
0.0130779
0.010484
0.00829709
0.00647348
0.00496938
0.00374067
0.00274593
0.00193938
0.00128883
0.000730585
0.000277024
0.0698148
0.0600111
0.0519417
0.0449176
0.0385633
0.0328396
0.0277686
0.0233235
0.0194466
0.0160803
0.013175
0.0106855
0.00856661
0.00677432
0.0052622
0.00399116
0.00290778
0.00199288
0.00115209
0.00045735
0.0747125
0.0649093
0.0565265
0.0491338
0.0424586
0.0364466
0.0310939
0.0263683
0.0222163
0.0185832
0.0154192
0.012678
0.0103132
0.00828073
0.00653235
0.00503061
0.0037163
0.00257985
0.00150375
0.000604801
0.0785852
0.0687882
0.0601655
0.052488
0.0455628
0.0393244
0.0337492
0.0288014
0.0244309
0.0205854
0.017215
0.0142728
0.0117115
0.00948699
0.00754959
0.00586304
0.00436386
0.00304943
0.00178524
0.000721127
0.0814691
0.0716763
0.0628779
0.0549921
0.0478835
0.0414779
0.0357375
0.0306244
0.0260911
0.0220869
0.0185622
0.0154694
0.0127609
0.0103923
0.00831317
0.00648785
0.00484994
0.00340157
0.00199637
0.000807436
0.0834099
0.0736077
0.0646853
0.0566591
0.0494291
0.042913
0.0370631
0.0318401
0.0271985
0.0230888
0.0194612
0.0162682
0.0134615
0.0109968
0.00882308
0.00690507
0.00517464
0.00363649
0.00213752
0.000863732
0.0844111
0.0745913
0.0655936
0.0574913
0.0501991
0.0436275
0.0377229
0.0324451
0.0277495
0.0235873
0.0199086
0.0166657
0.0138103
0.0112977
0.00907705
0.00711262
0.00533687
0.00375255
0.00220997
0.000886609
0.0702455
0.0381501
0.0105524
-0.012527
-0.0310034
-0.0454979
-0.0562253
-0.066253
-0.0744517
-0.0989048
0.0950743
0.0639719
0.036681
0.0131161
-0.00656937
-0.0234759
-0.0373246
-0.0530829
-0.0644241
-0.0924481
0.116514
0.086641
0.059885
0.0359425
0.015041
-0.00441633
-0.020898
-0.0399303
-0.0503177
-0.0753334
0.13508
0.106298
0.0800964
0.056028
0.0345801
0.0139922
-0.00287971
-0.0220231
-0.0317849
-0.0548896
0.151137
0.123326
0.0977404
0.0739045
0.0526055
0.0320541
0.0155491
-0.00322919
-0.0142223
-0.0353629
0.16506
0.138168
0.113269
0.0899128
0.0690211
0.0488161
0.0323119
0.0138632
0.00153366
-0.0168749
0.17718
0.151164
0.126961
0.104167
0.0836544
0.0638235
0.0471555
0.0294292
0.0163661
0.000428408
0.187754
0.162553
0.139008
0.11678
0.096608
0.0772408
0.0605482
0.043749
0.0302497
0.015969
0.196976
0.17252
0.149587
0.127918
0.108094
0.0892584
0.0726561
0.0566379
0.0428561
0.0295938
0.204995
0.181225
0.15886
0.137731
0.118265
0.0999381
0.083468
0.0680127
0.0541414
0.0415086
0.211937
0.1888
0.16696
0.146336
0.12722
0.109336
0.0930329
0.0779891
0.0641902
0.0519326
0.217921
0.195358
0.173999
0.153833
0.135051
0.117544
0.101442
0.0867072
0.0730582
0.0610137
0.223042
0.200992
0.180069
0.160311
0.141845
0.124659
0.10877
0.0942677
0.0807865
0.0688647
0.227375
0.20578
0.185249
0.165851
0.147675
0.130762
0.115078
0.10075
0.0874268
0.0755785
0.230982
0.209786
0.189603
0.170519
0.152604
0.13592
0.120418
0.106224
0.0930355
0.0812284
0.233915
0.213064
0.193184
0.174371
0.156683
0.140188
0.124841
0.110748
0.0976629
0.0858706
0.236216
0.215659
0.196038
0.177452
0.159955
0.143613
0.128389
0.114365
0.10135
0.0895486
0.237915
0.217605
0.198205
0.179808
0.162467
0.146243
0.131108
0.117124
0.104141
0.0923033
0.239018
0.218915
0.199701
0.181461
0.164248
0.148115
0.133042
0.119074
0.10609
0.0941883
0.239518
0.219534
0.200431
0.18229
0.165159
0.149086
0.134057
0.120104
0.107122
0.0951703
0.578451
0.579568
0.571029
0.555131
0.531629
0.498323
0.452295
0.393554
0.33516
0.309059
0.519484
0.513881
0.496178
0.471979
0.440309
0.39783
0.341656
0.272875
0.20571
0.172529
0.459905
0.446906
0.421937
0.390699
0.351384
0.300365
0.235242
0.158154
0.0841817
0.045271
0.397499
0.378769
0.348663
0.311773
0.265855
0.207548
0.135359
0.0511274
-0.0253803
-0.0692676
0.335877
0.31229
0.278031
0.236464
0.185115
0.120946
0.0431638
-0.0433134
-0.121185
-0.168744
0.276984
0.249049
0.211425
0.166174
0.110731
0.0426189
-0.0379929
-0.124779
-0.201599
-0.251338
0.221535
0.189675
0.149817
0.101998
0.0439024
-0.0261666
-0.107112
-0.191732
-0.26523
-0.315957
0.168666
0.135367
0.0940444
0.0447103
-0.014496
-0.084518
-0.163342
-0.243236
-0.311597
-0.362393
0.121033
0.0864416
0.0445318
-0.00508957
-0.0638004
-0.131763
-0.206154
-0.279215
-0.341212
-0.391323
0.0785724
0.0433858
0.00176711
-0.0469479
-0.103596
-0.167606
-0.235608
-0.300393
-0.355442
-0.404226
1.01794
1.0464
1.07784
1.11198
1.1485
1.18673
1.22503
1.26034
1.29393
1.33976
1.00899
1.03617
1.06657
1.09955
1.13465
1.17116
1.20741
1.2403
1.27114
1.3155
0.991199
1.01584
1.04417
1.07486
1.10712
1.14018
1.17229
1.20034
1.22617
1.2667
0.964988
0.985954
1.01129
1.03862
1.06673
1.09474
1.1208
1.14186
1.16051
1.19534
0.930863
0.947182
0.968675
0.991656
1.01442
1.03595
1.05426
1.06638
1.07597
1.10361
0.889444
0.900318
0.917249
0.935031
0.951403
0.965219
0.974316
0.975918
0.974937
0.994244
0.841408
0.846262
0.858101
0.870006
0.87914
0.884239
0.882993
0.872895
0.86032
0.870501
0.787257
0.785766
0.792329
0.797946
0.799239
0.794917
0.782568
0.760065
0.735399
0.736069
0.72739
0.71981
0.721386
0.72042
0.713438
0.699309
0.675515
0.640421
0.603731
0.594921
0.658852
0.649392
0.647105
0.639176
0.623701
0.599723
0.564535
0.517168
0.469062
0.451199
0.806117
0.806597
0.807825
0.809913
0.81285
0.816636
0.821302
0.826895
0.83345
0.841028
0.849698
0.859541
0.870642
0.883099
0.89702
0.912519
0.929717
0.948736
0.969697
0.992679
0.804481
0.804951
0.806157
0.808203
0.811083
0.814797
0.819379
0.824854
0.831269
0.83868
0.847152
0.856757
0.867573
0.879688
0.893199
0.908205
0.924809
0.943112
0.963207
0.985115
0.801239
0.801697
0.802863
0.804829
0.807594
0.811154
0.815574
0.820828
0.826971
0.834058
0.84214
0.851277
0.861532
0.872973
0.885673
0.899703
0.915129
0.932005
0.950368
0.970118
0.796494
0.796937
0.798049
0.799905
0.802518
0.805894
0.810019
0.814939
0.820689
0.8273
0.834809
0.843255
0.852681
0.863126
0.874626
0.887209
0.900885
0.915637
0.931422
0.947959
0.790378
0.790806
0.79185
0.793563
0.795962
0.799082
0.802865
0.807366
0.812608
0.818603
0.825367
0.832916
0.841261
0.850405
0.860336
0.871022
0.8824
0.894358
0.906739
0.919035
0.783056
0.783468
0.784438
0.785994
0.788169
0.790938
0.79432
0.798326
0.802957
0.808208
0.814073
0.820536
0.827571
0.835132
0.843149
0.851515
0.860072
0.868589
0.876768
0.883824
0.774714
0.775113
0.776004
0.777379
0.779276
0.781685
0.784614
0.788051
0.79198
0.796375
0.801203
0.806412
0.811931
0.817658
0.823448
0.829104
0.834351
0.838811
0.842014
0.842854
0.765558
0.765946
0.766758
0.76795
0.769547
0.771569
0.774
0.776809
0.779961
0.783405
0.787075
0.790879
0.794693
0.798349
0.801621
0.804205
0.805693
0.805521
0.803004
0.796599
0.755795
0.756173
0.756914
0.75792
0.75923
0.760857
0.762772
0.764928
0.767268
0.769711
0.772154
0.774454
0.776424
0.777814
0.778296
0.777436
0.774672
0.769228
0.760245
0.745437
0.745639
0.745973
0.746596
0.747392
0.748383
0.749568
0.750911
0.752352
0.75381
0.755181
0.756323
0.757046
0.757096
0.756136
0.753715
0.74922
0.741857
0.730389
0.713749
0.687046
0.735733
0.735879
0.736156
0.736523
0.73696
0.73744
0.737909
0.738289
0.738477
0.738338
0.737693
0.736309
0.73388
0.730001
0.724142
0.715571
0.703357
0.685784
0.661036
0.620852
0.726069
0.726097
0.726146
0.726186
0.726181
0.726088
0.725846
0.725368
0.724543
0.723223
0.72122
0.71829
0.714118
0.708299
0.700311
0.689447
0.674859
0.65515
0.62951
0.595706
0.716358
0.716306
0.71617
0.715915
0.715505
0.714893
0.714012
0.712775
0.711067
0.708742
0.705617
0.701456
0.695969
0.688788
0.679461
0.667415
0.652032
0.632482
0.60843
0.579
0.706723
0.706601
0.706296
0.705767
0.704982
0.703893
0.702433
0.700515
0.698025
0.694822
0.690732
0.68554
0.678983
0.670741
0.660444
0.647647
0.631901
0.61268
0.589615
0.562219
0.697271
0.697086
0.696632
0.695859
0.69474
0.69323
0.691264
0.688753
0.685592
0.681647
0.676758
0.67073
0.663332
0.654295
0.643312
0.630039
0.614123
0.595201
0.572914
0.54713
0.688093
0.687856
0.687272
0.686287
0.684877
0.683003
0.6806
0.677587
0.673862
0.669304
0.663769
0.657084
0.64905
0.639441
0.628006
0.614476
0.598571
0.580048
0.5586
0.534292
0.679272
0.678988
0.678293
0.677125
0.675466
0.67328
0.670508
0.667073
0.662883
0.657828
0.651779
0.644588
0.636084
0.62608
0.614371
0.600748
0.584991
0.566942
0.546332
0.523324
0.670876
0.670553
0.669763
0.668439
0.666569
0.664121
0.66104
0.657257
0.652687
0.647234
0.640786
0.633212
0.624372
0.614108
0.602256
0.588654
0.573127
0.555578
0.53576
0.513899
0.662963
0.662608
0.661738
0.660284
0.658237
0.655571
0.652236
0.648169
0.643296
0.63753
0.630776
0.622922
0.613849
0.603429
0.591529
0.578024
0.562774
0.545722
0.526648
0.505811
0.655584
0.655201
0.654265
0.652703
0.65051
0.647666
0.644125
0.639831
0.634718
0.628711
0.621728
0.613674
0.60445
0.593952
0.582071
0.568712
0.553763
0.537194
0.518813
0.49889
0.648779
0.648374
0.647384
0.645733
0.643422
0.640433
0.636727
0.632254
0.626955
0.620766
0.613616
0.605426
0.596113
0.585592
0.573776
0.560592
0.54595
0.529841
0.512096
0.492984
0.642583
0.642159
0.641125
0.639404
0.636997
0.633893
0.630057
0.625444
0.620004
0.61368
0.606413
0.598136
0.588779
0.578275
0.566552
0.553555
0.539215
0.523532
0.506366
0.487968
0.637022
0.636584
0.635514
0.633736
0.631254
0.62806
0.624123
0.619404
0.613858
0.607437
0.60009
0.591762
0.582394
0.571932
0.560318
0.54751
0.533454
0.518159
0.50151
0.483734
0.632118
0.631669
0.630572
0.628749
0.626208
0.622944
0.61893
0.614131
0.608508
0.602019
0.594622
0.586268
0.576911
0.566505
0.555005
0.542378
0.528583
0.513634
0.497439
0.480197
0.627888
0.62743
0.626312
0.624455
0.621869
0.618553
0.614481
0.609623
0.603944
0.59741
0.589982
0.581621
0.572288
0.561943
0.550553
0.538093
0.52453
0.509881
0.494076
0.477286
0.624347
0.623882
0.622748
0.620865
0.618245
0.614889
0.610775
0.605875
0.600158
0.593595
0.586151
0.577793
0.568488
0.558205
0.546916
0.5346
0.521237
0.506841
0.491361
0.474943
0.621503
0.621033
0.619887
0.617986
0.615342
0.611957
0.607813
0.602883
0.597141
0.590559
0.583108
0.57476
0.565484
0.555256
0.544052
0.531858
0.518657
0.504467
0.489248
0.473125
0.619363
0.61889
0.617736
0.615822
0.613161
0.609757
0.605592
0.600643
0.594885
0.588292
0.58084
0.572501
0.563251
0.553068
0.541931
0.529831
0.516755
0.502721
0.487699
0.471797
0.617934
0.617458
0.616299
0.614377
0.611705
0.608289
0.604112
0.599151
0.593383
0.586784
0.579332
0.571002
0.561771
0.551619
0.540529
0.528493
0.515502
0.501575
0.48669
0.470942
0.617225
0.616745
0.615584
0.613658
0.610981
0.607559
0.603375
0.598409
0.592637
0.586036
0.578584
0.570259
0.561037
0.550901
0.539835
0.527832
0.514884
0.501011
0.486202
0.470551
0.569467
0.512404
0.457209
0.401011
0.345018
0.291249
0.240117
0.191682
0.146985
0.106562
0.559018
0.504052
0.450809
0.399919
0.349237
0.30011
0.253264
0.209278
0.167841
0.129728
0.544845
0.493531
0.443127
0.396867
0.351204
0.306493
0.263744
0.223421
0.185049
0.149319
0.530469
0.483909
0.437216
0.394917
0.353538
0.312635
0.273246
0.235819
0.199949
0.166275
0.517654
0.475621
0.432734
0.393779
0.355921
0.318245
0.28164
0.246619
0.21286
0.180952
0.506607
0.468477
0.429183
0.393108
0.358137
0.323192
0.288958
0.255975
0.224013
0.193648
0.497129
0.462332
0.426303
0.392752
0.360168
0.327528
0.295346
0.264133
0.233683
0.204667
0.489034
0.45709
0.423942
0.392598
0.362004
0.331292
0.300862
0.271283
0.24214
0.214279
0.482157
0.452646
0.421988
0.392562
0.363642
0.334536
0.305508
0.276917
0.249486
0.222675
0.476335
0.448892
0.420354
0.39258
0.365081
0.337343
0.309586
0.282202
0.255852
0.229939
0.471422
0.445727
0.418976
0.392616
0.366328
0.339764
0.313133
0.286812
0.261278
0.236173
0.46729
0.443063
0.417804
0.392642
0.367386
0.341821
0.316152
0.290706
0.265889
0.241509
0.463833
0.440827
0.416801
0.392643
0.368258
0.343538
0.318681
0.293983
0.269799
0.246052
0.460964
0.438958
0.415935
0.392607
0.368951
0.344937
0.320765
0.296706
0.273075
0.249878
0.458613
0.437406
0.415185
0.392527
0.36947
0.34604
0.322439
0.29892
0.275768
0.253044
0.456724
0.436135
0.414533
0.392403
0.369822
0.346866
0.323732
0.300661
0.277919
0.255598
0.455252
0.435113
0.413965
0.392229
0.370014
0.347428
0.324667
0.301961
0.27956
0.257578
0.454162
0.434309
0.413458
0.391987
0.370031
0.347719
0.325247
0.302835
0.28071
0.259008
0.453442
0.433719
0.413005
0.391663
0.369855
0.347719
0.325451
0.303266
0.28137
0.259893
0.453137
0.433456
0.412768
0.391447
0.369679
0.347609
0.325425
0.30334
0.281612
0.260273
)
;

boundaryField
{
    bottom
    {
        type            symmetryPlane;
    }
    right
    {
        type            fixedValue;
        value           uniform 0;
    }
    top
    {
        type            symmetryPlane;
    }
    left
    {
        type            zeroGradient;
    }
    cylinder
    {
        type            zeroGradient;
    }
    defaultFaces
    {
        type            empty;
    }
}


// ************************************************************************* //
