/*--------------------------------*- C++ -*----------------------------------*\
| =========                 |                                                 |
| \\      /  F ield         | OpenFOAM: The Open Source CFD Toolbox           |
|  \\    /   O peration     | Version:  4.1                                   |
|   \\  /    A nd           | Web:      www.OpenFOAM.org                      |
|    \\/     M anipulation  |                                                 |
\*---------------------------------------------------------------------------*/
FoamFile
{
    version     2.0;
    format      ascii;
    class       volScalarField;
    location    "15";
    object      p;
}
// * * * * * * * * * * * * * * * * * * * * * * * * * * * * * * * * * * * * * //

dimensions      [0 2 -2 0 0 0 0];

internalField   nonuniform List<scalar> 
3800
(
-0.530057
-0.528078
-0.523976
-0.519541
-0.515756
-0.512962
-0.510262
-0.510265
-0.508846
-0.513616
-0.535947
-0.533244
-0.528393
-0.52312
-0.518267
-0.513618
-0.509049
-0.504707
-0.500439
-0.498363
-0.544522
-0.54053
-0.534488
-0.527919
-0.521163
-0.51371
-0.505397
-0.496907
-0.488551
-0.481116
-0.556237
-0.550309
-0.5422
-0.533682
-0.523719
-0.512008
-0.499213
-0.486669
-0.474262
-0.464411
-0.571722
-0.562865
-0.552063
-0.540307
-0.525298
-0.508112
-0.490667
-0.47404
-0.458865
-0.446801
-0.59224
-0.577866
-0.564439
-0.547088
-0.525134
-0.501868
-0.479626
-0.45945
-0.441749
-0.427414
-0.618513
-0.596039
-0.577852
-0.552167
-0.522179
-0.492696
-0.46596
-0.442475
-0.422454
-0.405915
-0.648313
-0.618692
-0.589898
-0.553372
-0.515185
-0.480021
-0.449232
-0.422855
-0.400628
-0.381713
-0.673962
-0.641964
-0.598421
-0.5494
-0.503336
-0.463177
-0.428983
-0.400153
-0.375852
-0.354881
-0.69208
-0.658385
-0.600227
-0.5393
-0.486048
-0.44158
-0.4046
-0.373844
-0.347927
-0.325554
-0.497517
-0.50089
-0.503757
-0.507407
-0.511975
-0.517274
-0.523192
-0.529707
-0.53686
-0.544625
-0.49957
-0.50265
-0.505348
-0.508881
-0.513339
-0.518523
-0.524312
-0.530659
-0.537613
-0.545291
-0.503244
-0.505723
-0.508101
-0.511371
-0.51556
-0.520466
-0.525958
-0.531949
-0.538474
-0.545908
-0.507734
-0.509407
-0.511289
-0.514097
-0.517801
-0.522201
-0.527173
-0.532607
-0.538462
-0.5453
-0.512238
-0.513019
-0.514217
-0.516311
-0.519254
-0.522871
-0.527054
-0.53173
-0.536761
-0.542385
-0.516171
-0.516107
-0.516455
-0.517556
-0.519439
-0.521994
-0.525131
-0.528823
-0.53293
-0.537296
-0.519285
-0.518546
-0.51793
-0.517802
-0.518379
-0.519671
-0.521607
-0.524233
-0.527736
-0.529689
-0.52168
-0.520498
-0.518882
-0.517421
-0.516601
-0.516611
-0.517381
-0.518971
-0.522988
-0.521289
-0.523778
-0.52234
-0.519773
-0.517069
-0.515004
-0.513963
-0.513772
-0.514632
-0.519144
-0.515761
-0.526271
-0.52465
-0.521238
-0.517557
-0.51456
-0.51275
-0.511495
-0.512451
-0.514621
-0.51478
-0.555801
-0.57106
-0.587644
-0.605232
-0.62369
-0.642726
-0.662085
-0.681468
-0.700592
-0.719174
-0.736953
-0.753689
-0.769168
-0.7832
-0.795622
-0.806298
-0.815117
-0.821999
-0.826871
-0.829565
-0.829806
-0.827314
-0.821827
-0.813398
-0.801758
-0.78661
-0.76767
-0.744702
-0.717537
-0.686114
-0.65051
-0.610973
-0.567934
-0.522015
-0.474
-0.424797
-0.375379
-0.326716
-0.279907
-0.235706
-0.19475
-0.157477
-0.124172
-0.0949383
-0.0696912
-0.0482829
-0.0304541
-0.0158885
-0.00423132
0.00488368
0.0118171
0.0169108
0.020479
0.0228035
0.0241323
0.0246797
0.0246268
0.0241242
0.0232946
0.0222376
0.0210313
0.019738
0.0184032
0.017064
0.015743
0.0144614
0.0132252
0.0120482
0.0109224
0.0098614
0.00884222
0.00788666
0.0069509
0.00607737
0.00518738
0.00436474
0.00346823
0.0026589
0.00167671
0.000811385
-0.556643
-0.571737
-0.588235
-0.605774
-0.624234
-0.643307
-0.662728
-0.682188
-0.701399
-0.720072
-0.737945
-0.754774
-0.770345
-0.784473
-0.796996
-0.807779
-0.816708
-0.823693
-0.828651
-0.831489
-0.831942
-0.829718
-0.824628
-0.816568
-0.805316
-0.790585
-0.772085
-0.749562
-0.722826
-0.691793
-0.656511
-0.617202
-0.574284
-0.528384
-0.480264
-0.430853
-0.38115
-0.332066
-0.284858
-0.240262
-0.198936
-0.16123
-0.127543
-0.0979303
-0.0723887
-0.0507035
-0.0326249
-0.0178381
-0.00598505
0.00330379
0.010392
0.0156243
0.0193177
0.021756
0.0231876
0.0238266
0.0238554
0.0234264
0.0226632
0.0216664
0.0205145
0.0192705
0.0179805
0.0166818
0.0153975
0.0141494
0.0129438
0.0117947
0.0106944
0.00965681
0.00865931
0.0077237
0.00680687
0.00595065
0.00507793
0.00427041
0.00339071
0.00259417
0.00163063
0.000777065
-0.557544
-0.5723
-0.588608
-0.606072
-0.624545
-0.643692
-0.663225
-0.682829
-0.702203
-0.721053
-0.739107
-0.756119
-0.771875
-0.786189
-0.798907
-0.809899
-0.819053
-0.82627
-0.831456
-0.834533
-0.835362
-0.833622
-0.829095
-0.821687
-0.811141
-0.797165
-0.77946
-0.75775
-0.731807
-0.701501
-0.666845
-0.628031
-0.585428
-0.539681
-0.491505
-0.44187
-0.391902
-0.34203
-0.294232
-0.248984
-0.206916
-0.168472
-0.134176
-0.104
-0.0779017
-0.0557074
-0.0371642
-0.0219537
-0.00971586
-7.76439e-05
0.00732815
0.0128495
0.0168063
0.019485
0.0211364
0.0219757
0.0221853
0.0219188
0.0213024
0.0204383
0.0194067
0.0182715
0.0170799
0.0158703
0.0146667
0.0134916
0.0123526
0.0112635
0.0102188
0.009231
0.00828061
0.00738669
0.00651129
0.00569013
0.004856
0.00407756
0.00323703
0.00246277
0.00154498
0.000709064
-0.55726
-0.57161
-0.587669
-0.605057
-0.623557
-0.642809
-0.662497
-0.682301
-0.701906
-0.721009
-0.739331
-0.756618
-0.772651
-0.787247
-0.800253
-0.811547
-0.821024
-0.828592
-0.834154
-0.837607
-0.838874
-0.837667
-0.833868
-0.827278
-0.81761
-0.804585
-0.787897
-0.767245
-0.742359
-0.713058
-0.679338
-0.641399
-0.599315
-0.553949
-0.50593
-0.456281
-0.406537
-0.354492
-0.306673
-0.260831
-0.218069
-0.178978
-0.143923
-0.113007
-0.0862063
-0.0633535
-0.0441895
-0.0283949
-0.0156104
-0.00546186
0.00241906
0.00838174
0.0127475
0.0158042
0.0178041
0.0189645
0.0194687
0.0194702
0.0190963
0.0184515
0.0176186
0.0166632
0.0156344
0.0145718
0.0135014
0.0124463
0.0114164
0.0104257
0.00947122
0.00856449
0.00769012
0.00686366
0.00605436
0.00528991
0.0045164
0.00378568
0.00300548
0.00227044
0.00142134
0.000620951
-0.554598
-0.568592
-0.58453
-0.601827
-0.620489
-0.639824
-0.659673
-0.679698
-0.699575
-0.718994
-0.737662
-0.755317
-0.771734
-0.786724
-0.800131
-0.811833
-0.821733
-0.829749
-0.835795
-0.839771
-0.841548
-0.840977
-0.837991
-0.83224
-0.823511
-0.811524
-0.795964
-0.776508
-0.752858
-0.724772
-0.692216
-0.655342
-0.613492
-0.568886
-0.521334
-0.471786
-0.421323
-0.370528
-0.321795
-0.275345
-0.23191
-0.192121
-0.156332
-0.124669
-0.0971155
-0.0735206
-0.053632
-0.0371338
-0.0236707
-0.0128727
-0.00437374
0.00217358
0.00708918
0.0106602
0.0131389
0.0147427
0.0156561
0.0160337
0.0160029
0.0156694
0.0151182
0.0144178
0.0136199
0.0127657
0.011884
0.0109991
0.0101236
0.00927194
0.00844466
0.00765224
0.00688436
0.00615289
0.00543535
0.00475107
0.0040605
0.00339861
0.00269915
0.00202453
0.00126435
0.000524526
-0.54898
-0.563258
-0.579073
-0.596299
-0.614783
-0.634202
-0.6542
-0.674445
-0.694617
-0.714396
-0.733477
-0.751589
-0.768493
-0.783989
-0.797917
-0.81015
-0.820591
-0.82916
-0.835783
-0.84038
-0.842838
-0.843011
-0.84073
-0.835814
-0.828011
-0.817038
-0.802579
-0.784299
-0.761886
-0.735067
-0.703662
-0.667752
-0.627474
-0.583657
-0.536789
-0.487719
-0.437468
-0.387077
-0.338116
-0.29136
-0.247518
-0.207199
-0.170785
-0.138437
-0.110154
-0.0858016
-0.0651413
-0.0478679
-0.0336363
-0.0220848
-0.0128549
-0.00560527
-2.07422e-05
0.00418229
0.00725382
0.00941012
0.0108355
0.0116851
0.0120876
0.0121492
0.0119567
0.0115808
0.0110765
0.0104875
0.00984589
0.00917756
0.00849852
0.00782401
0.00715852
0.0065118
0.00587903
0.00526885
0.00466715
0.00408579
0.00349894
0.0029269
0.00232685
0.00173453
0.00108081
0.000427047
-0.541441
-0.556299
-0.571745
-0.588579
-0.60695
-0.626353
-0.646373
-0.666749
-0.687175
-0.707304
-0.726814
-0.745423
-0.762881
-0.778972
-0.79352
-0.80639
-0.817475
-0.826694
-0.833969
-0.839221
-0.842375
-0.843276
-0.84175
-0.837639
-0.830714
-0.820698
-0.807277
-0.790118
-0.768897
-0.743335
-0.713227
-0.678544
-0.639537
-0.596788
-0.550882
-0.502642
-0.453085
-0.403328
-0.354621
-0.307911
-0.263953
-0.22335
-0.186505
-0.153613
-0.124693
-0.0996301
-0.0782073
-0.0601372
-0.0450911
-0.0327221
-0.0226844
-0.0146474
-0.0083046
-0.00337898
0.000374804
0.00317003
0.00518967
0.00658854
0.00749637
0.00802061
0.00824953
0.00825546
0.0080967
0.00781975
0.00746025
0.00704647
0.00659827
0.0061321
0.00565678
0.00518178
0.00470781
0.00424109
0.00377529
0.00331644
0.00285071
0.0023871
0.00190208
0.00141154
0.000878404
0.000331809
-0.533194
-0.548857
-0.563643
-0.57981
-0.597872
-0.616969
-0.636688
-0.656911
-0.677357
-0.697653
-0.717465
-0.736501
-0.754491
-0.771199
-0.786428
-0.800022
-0.811856
-0.821836
-0.829877
-0.835888
-0.839805
-0.841434
-0.840725
-0.837426
-0.831325
-0.822172
-0.809665
-0.793485
-0.773319
-0.748903
-0.720046
-0.686717
-0.649118
-0.607716
-0.56312
-0.516136
-0.467742
-0.419015
-0.37107
-0.324864
-0.281162
-0.240567
-0.203506
-0.170208
-0.140728
-0.11498
-0.0927776
-0.0738632
-0.0579328
-0.0446622
-0.0337244
-0.0248045
-0.017608
-0.0118673
-0.00734329
-0.00382678
-0.00113666
0.000881424
0.00235816
0.00340261
0.0041056
0.00454173
0.00477232
0.00484669
0.00480443
0.00467645
0.00448685
0.00425393
0.00399103
0.00370815
0.00341127
0.00310527
0.00279078
0.00246981
0.00213856
0.00179804
0.00144006
0.00106655
0.000664552
0.000240391
-0.526592
-0.541508
-0.554631
-0.570042
-0.588021
-0.606991
-0.626549
-0.646696
-0.667161
-0.687571
-0.707608
-0.72698
-0.745408
-0.762639
-0.778458
-0.792689
-0.805187
-0.815843
-0.824568
-0.831242
-0.835752
-0.837997
-0.837971
-0.835346
-0.829971
-0.821585
-0.809899
-0.794625
-0.775472
-0.752191
-0.724622
-0.692744
-0.656747
-0.617047
-0.574199
-0.528947
-0.482198
-0.434945
-0.388198
-0.342869
-0.299709
-0.259323
-0.222167
-0.188518
-0.158475
-0.131999
-0.108945
-0.0890925
-0.0721715
-0.0578866
-0.0459351
-0.0360211
-0.027865
-0.0212099
-0.015824
-0.0115025
-0.00806612
-0.00536064
-0.00325396
-0.00163483
-0.000409362
0.00050012
0.0011588
0.00161936
0.00192559
0.00211143
0.00220527
0.00222772
0.00219671
0.00212349
0.00201908
0.00188813
0.00173739
0.0015666
0.00138023
0.0011741
0.000952102
0.00070672
0.000443344
0.000152351
-0.527556
-0.537545
-0.546841
-0.560358
-0.576812
-0.594545
-0.613265
-0.632849
-0.652941
-0.673165
-0.693201
-0.712746
-0.731509
-0.74922
-0.765639
-0.780568
-0.793828
-0.805287
-0.814824
-0.822356
-0.827915
-0.831279
-0.831727
-0.829722
-0.825076
-0.817432
-0.806508
-0.792043
-0.773775
-0.75148
-0.725022
-0.694392
-0.659752
-0.621473
-0.580103
-0.536359
-0.491096
-0.445251
-0.399784
-0.355575
-0.31334
-0.273638
-0.236916
-0.203462
-0.173393
-0.146695
-0.12325
-0.102866
-0.0853033
-0.0702972
-0.0575721
-0.0468568
-0.0378925
-0.0304393
-0.0242787
-0.0192156
-0.0150775
-0.0117142
-0.00899582
-0.00681155
-0.0050666
-0.00368184
-0.00258969
-0.00173525
-0.00107154
-0.0005621
-0.000174826
0.000113141
0.000323742
0.000469737
0.000566587
0.000619324
0.000639984
0.000627174
0.000592237
0.000527728
0.000447175
0.000336682
0.000215908
6.42122e-05
-0.523272
-0.530423
-0.540834
-0.554423
-0.57027
-0.587691
-0.606291
-0.625718
-0.645625
-0.66569
-0.685613
-0.7051
-0.723859
-0.741622
-0.758136
-0.773193
-0.786602
-0.798203
-0.807872
-0.815518
-0.821075
-0.824232
-0.824755
-0.822669
-0.817787
-0.809834
-0.798555
-0.783707
-0.765065
-0.742451
-0.715787
-0.685123
-0.650678
-0.612858
-0.572245
-0.52956
-0.48563
-0.441342
-0.397569
-0.355102
-0.314592
-0.276542
-0.241323
-0.209163
-0.180154
-0.154269
-0.131394
-0.111355
-0.0939364
-0.0789033
-0.0660112
-0.0550193
-0.0456967
-0.0378281
-0.0312159
-0.0256822
-0.0210683
-0.0172346
-0.014059
-0.0114364
-0.0092757
-0.00750009
-0.00604302
-0.00485009
-0.00387349
-0.00307617
-0.00242408
-0.00189341
-0.00145957
-0.00110899
-0.000822886
-0.000596011
-0.000412137
-0.000273475
-0.000163131
-9.0964e-05
-3.56689e-05
-1.59828e-05
-7.2076e-07
-1.87968e-05
-0.515724
-0.527483
-0.539219
-0.55221
-0.567329
-0.584452
-0.602946
-0.622206
-0.641827
-0.661528
-0.681054
-0.700139
-0.718503
-0.73588
-0.752018
-0.766701
-0.779753
-0.790988
-0.800319
-0.807514
-0.812208
-0.814697
-0.814799
-0.81219
-0.806655
-0.798002
-0.786029
-0.770532
-0.751334
-0.728322
-0.701482
-0.670932
-0.636942
-0.599942
-0.560515
-0.519354
-0.47723
-0.434942
-0.393263
-0.352885
-0.314384
-0.278193
-0.244617
-0.213846
-0.185955
-0.160921
-0.138647
-0.118981
-0.101741
-0.086722
-0.0737109
-0.0624962
-0.052873
-0.0446486
-0.0376443
-0.0316977
-0.0266625
-0.0224089
-0.0188219
-0.015802
-0.0132616
-0.0111266
-0.00933164
-0.00782314
-0.006553
-0.00548391
-0.00458054
-0.00381835
-0.00317074
-0.00262339
-0.00215488
-0.00175958
-0.00141789
-0.00113235
-0.000881613
-0.000677108
-0.000491309
-0.000346448
-0.000202185
-9.36551e-05
-0.506496
-0.524166
-0.536989
-0.549328
-0.563748
-0.580528
-0.598858
-0.617903
-0.637156
-0.656356
-0.675302
-0.693776
-0.711521
-0.728279
-0.743807
-0.757884
-0.770335
-0.780974
-0.789653
-0.79613
-0.800229
-0.802089
-0.801543
-0.798253
-0.79201
-0.782675
-0.770093
-0.754106
-0.734591
-0.711494
-0.684862
-0.654858
-0.621778
-0.586054
-0.548237
-0.508969
-0.468942
-0.428859
-0.389392
-0.351143
-0.314613
-0.280185
-0.248128
-0.218611
-0.191708
-0.167412
-0.145646
-0.126287
-0.10918
-0.09415
-0.0810125
-0.0695809
-0.0596729
-0.0511151
-0.0437452
-0.0374142
-0.0319867
-0.0273415
-0.0233701
-0.019978
-0.017081
-0.0146074
-0.0124932
-0.0106856
-0.00913636
-0.00780812
-0.00666445
-0.00568019
-0.00482701
-0.00408986
-0.00344505
-0.00288644
-0.00239152
-0.00196292
-0.00157548
-0.0012417
-0.000928831
-0.000661794
-0.000392649
-0.00016193
-0.496971
-0.517789
-0.531831
-0.544165
-0.558217
-0.574686
-0.592793
-0.61157
-0.630416
-0.649059
-0.667353
-0.685127
-0.702162
-0.718212
-0.733039
-0.746427
-0.758182
-0.768133
-0.776103
-0.781969
-0.785626
-0.786903
-0.785663
-0.781696
-0.774836
-0.764959
-0.751941
-0.735669
-0.71607
-0.693144
-0.666981
-0.637774
-0.60583
-0.571562
-0.535484
-0.498175
-0.460253
-0.422336
-0.385013
-0.348809
-0.314165
-0.281422
-0.250824
-0.222525
-0.196598
-0.173047
-0.151814
-0.132799
-0.115873
-0.100886
-0.087678
-0.0760861
-0.0659486
-0.0571103
-0.0494244
-0.0427552
-0.0369777
-0.0319793
-0.0276584
-0.0239252
-0.0206994
-0.017912
-0.0155004
-0.013413
-0.0116018
-0.0100293
-0.00865848
-0.00746356
-0.00641482
-0.00549657
-0.00468312
-0.00396784
-0.00332569
-0.00275923
-0.00224003
-0.00178138
-0.00134605
-0.000961202
-0.000572663
-0.000225795
-0.486149
-0.508489
-0.524213
-0.537341
-0.551479
-0.567761
-0.585624
-0.604102
-0.622533
-0.640627
-0.658263
-0.675317
-0.691608
-0.70691
-0.720992
-0.733646
-0.744672
-0.753912
-0.761208
-0.766463
-0.769592
-0.770278
-0.768386
-0.76381
-0.756438
-0.746158
-0.73287
-0.716498
-0.697017
-0.674466
-0.648968
-0.620732
-0.590061
-0.557345
-0.523053
-0.487705
-0.451848
-0.416025
-0.38075
-0.346485
-0.313618
-0.282455
-0.253219
-0.226055
-0.201037
-0.178182
-0.157449
-0.138762
-0.122014
-0.107078
-0.0938182
-0.0820913
-0.0717546
-0.0626693
-0.0547025
-0.0477302
-0.0416371
-0.0363186
-0.0316791
-0.0276339
-0.024106
-0.021029
-0.0183421
-0.0159947
-0.0139391
-0.0121381
-0.0105539
-0.00916057
-0.00792711
-0.00683725
-0.00586363
-0.00499912
-0.00421648
-0.00351818
-0.00287289
-0.00229455
-0.0017421
-0.00124464
-0.000742721
-0.000285842
-0.474117
-0.497914
-0.515501
-0.529845
-0.544408
-0.560638
-0.578264
-0.596425
-0.614455
-0.632034
-0.64905
-0.665409
-0.680965
-0.695518
-0.708848
-0.720756
-0.731052
-0.739581
-0.746202
-0.750801
-0.753321
-0.753417
-0.750952
-0.745866
-0.738087
-0.727528
-0.714108
-0.697784
-0.678565
-0.656523
-0.631797
-0.604602
-0.575231
-0.544046
-0.511471
-0.477971
-0.444032
-0.410131
-0.376723
-0.344216
-0.312956
-0.283222
-0.255221
-0.229092
-0.204913
-0.182707
-0.162452
-0.144088
-0.127529
-0.112667
-0.0993855
-0.087559
-0.0770615
-0.0677686
-0.0595602
-0.0523231
-0.0459512
-0.0403471
-0.0354214
-0.0310938
-0.027291
-0.0239491
-0.0210093
-0.0184219
-0.01614
-0.0141266
-0.0123435
-0.0107645
-0.00935766
-0.0081063
-0.00698157
-0.00597591
-0.00506016
-0.00423667
-0.00347161
-0.00277948
-0.00211585
-0.00151158
-0.000902565
-0.000341953
-0.462586
-0.487494
-0.506614
-0.522217
-0.537391
-0.553691
-0.571109
-0.588957
-0.606605
-0.623719
-0.640177
-0.655901
-0.67077
-0.68461
-0.697221
-0.708415
-0.718012
-0.725863
-0.73183
-0.735794
-0.737684
-0.737221
-0.73427
-0.728775
-0.720688
-0.709944
-0.69649
-0.680306
-0.661429
-0.639948
-0.616015
-0.589843
-0.56171
-0.531951
-0.500952
-0.469129
-0.436915
-0.404738
-0.372999
-0.342064
-0.312246
-0.283799
-0.256915
-0.231729
-0.20832
-0.186718
-0.166914
-0.148863
-0.132493
-0.117717
-0.104433
-0.0925322
-0.0819028
-0.0724337
-0.0640162
-0.056547
-0.0499282
-0.0440694
-0.0388866
-0.0343041
-0.0302519
-0.0266688
-0.0234975
-0.0206899
-0.0181995
-0.0159896
-0.014022
-0.0122703
-0.0107018
-0.00929947
-0.00803311
-0.00689486
-0.00585385
-0.00491239
-0.00403438
-0.00323488
-0.00246645
-0.00176161
-0.00105201
-0.000394194
-0.452543
-0.477713
-0.497884
-0.51464
-0.530513
-0.546992
-0.564263
-0.581826
-0.599128
-0.615835
-0.631809
-0.646975
-0.661231
-0.674427
-0.686383
-0.696923
-0.705879
-0.713106
-0.718473
-0.721858
-0.723162
-0.722197
-0.718837
-0.713018
-0.704699
-0.69384
-0.68041
-0.664415
-0.645905
-0.624986
-0.601811
-0.576592
-0.549591
-0.52112
-0.491531
-0.461201
-0.430517
-0.399865
-0.369604
-0.340063
-0.311527
-0.284228
-0.258347
-0.234011
-0.211302
-0.190255
-0.17087
-0.153115
-0.136933
-0.122251
-0.10898
-0.0970267
-0.0862915
-0.0766748
-0.0680782
-0.0604073
-0.0535717
-0.0474874
-0.0420754
-0.0372643
-0.0329873
-0.0291857
-0.025804
-0.0227953
-0.0201138
-0.0177234
-0.0155858
-0.0136746
-0.0119563
-0.0104136
-0.00901544
-0.00775351
-0.00659549
-0.00554364
-0.00455991
-0.00365985
-0.00279335
-0.00199446
-0.00119099
-0.000442655
-0.443715
-0.468591
-0.489463
-0.50723
-0.523825
-0.540566
-0.557762
-0.575089
-0.59209
-0.608449
-0.624013
-0.638703
-0.652429
-0.665059
-0.676436
-0.686393
-0.694776
-0.701444
-0.706273
-0.709141
-0.709942
-0.708543
-0.704838
-0.698759
-0.690268
-0.679341
-0.665971
-0.650181
-0.632037
-0.611648
-0.589174
-0.564819
-0.538834
-0.511508
-0.483166
-0.45415
-0.424813
-0.3955
-0.366538
-0.338226
-0.310822
-0.284542
-0.259553
-0.235981
-0.213903
-0.193362
-0.174364
-0.156887
-0.140888
-0.126303
-0.113058
-0.101069
-0.0902503
-0.0805107
-0.0717614
-0.0639159
-0.0568905
-0.0506072
-0.0449918
-0.0399766
-0.0354979
-0.0314995
-0.0279274
-0.0247363
-0.0218809
-0.0193258
-0.0170325
-0.0149747
-0.0131186
-0.0114465
-0.00992647
-0.00855001
-0.00728349
-0.00612917
-0.00504722
-0.0040537
-0.0030961
-0.0022099
-0.00131946
-0.000487371
-0.43564
-0.460155
-0.481532
-0.500149
-0.517423
-0.53447
-0.551657
-0.568802
-0.585548
-0.60161
-0.616829
-0.631117
-0.64439
-0.656532
-0.667402
-0.676849
-0.684728
-0.690904
-0.695257
-0.697675
-0.698053
-0.696288
-0.692292
-0.686001
-0.677381
-0.66642
-0.65313
-0.637549
-0.619752
-0.599854
-0.578014
-0.554433
-0.529349
-0.503033
-0.475785
-0.447919
-0.419758
-0.391616
-0.363791
-0.336555
-0.310147
-0.284765
-0.260568
-0.237675
-0.216164
-0.196081
-0.177437
-0.160219
-0.144393
-0.129906
-0.116694
-0.104685
-0.0938
-0.0839587
-0.0750798
-0.0670838
-0.0598933
-0.0534355
-0.0476403
-0.042444
-0.0377855
-0.0336109
-0.0298678
-0.0265122
-0.0234996
-0.020795
-0.0183602
-0.0161689
-0.0141869
-0.0123964
-0.0107646
-0.00928296
-0.00791665
-0.00666797
-0.00549554
-0.0044159
-0.00337437
-0.00240778
-0.00143735
-0.00052835
-0.428281
-0.452519
-0.474254
-0.493547
-0.511417
-0.528776
-0.545999
-0.56301
-0.579544
-0.595353
-0.610279
-0.624229
-0.637118
-0.648842
-0.659275
-0.668278
-0.675717
-0.681464
-0.685405
-0.687436
-0.687459
-0.685387
-0.681147
-0.674683
-0.665966
-0.654997
-0.641799
-0.626421
-0.608946
-0.589494
-0.568224
-0.545329
-0.521037
-0.495605
-0.469312
-0.442447
-0.415308
-0.388184
-0.361348
-0.33505
-0.309512
-0.284918
-0.261418
-0.239127
-0.218121
-0.198448
-0.180124
-0.163144
-0.14748
-0.133089
-0.119916
-0.107897
-0.0969606
-0.0870356
-0.0780472
-0.0699224
-0.062589
-0.0559789
-0.0500262
-0.0446702
-0.0398525
-0.0355212
-0.0316257
-0.0281229
-0.0249693
-0.0221303
-0.0195679
-0.017256
-0.0151599
-0.013262
-0.0115286
-0.00995125
-0.00849401
-0.00715928
-0.00590427
-0.004746
-0.00362788
-0.00258795
-0.00154463
-0.000565594
-0.421794
-0.445752
-0.467709
-0.487519
-0.505889
-0.523539
-0.540826
-0.557743
-0.574102
-0.589697
-0.604377
-0.618041
-0.630605
-0.641973
-0.652032
-0.660653
-0.667712
-0.67309
-0.676678
-0.678379
-0.678104
-0.675776
-0.671333
-0.664728
-0.655943
-0.644982
-0.63188
-0.616695
-0.599515
-0.580464
-0.559697
-0.537405
-0.513805
-0.489142
-0.463675
-0.437676
-0.41142
-0.385175
-0.359194
-0.333709
-0.308925
-0.285018
-0.262128
-0.240364
-0.219804
-0.200495
-0.182459
-0.165694
-0.15018
-0.13588
-0.122748
-0.110726
-0.0997508
-0.0897574
-0.0806773
-0.0724427
-0.0649866
-0.0582447
-0.0521548
-0.0466591
-0.0417016
-0.0372323
-0.033202
-0.0295688
-0.0262898
-0.0233311
-0.0206548
-0.0182349
-0.0160367
-0.0140423
-0.0122176
-0.0105541
-0.00901488
-0.0076025
-0.00627296
-0.00504369
-0.00385641
-0.00275029
-0.00164123
-0.000599106
-0.416216
-0.439838
-0.461906
-0.482108
-0.500889
-0.518801
-0.536164
-0.553019
-0.569239
-0.584654
-0.599125
-0.61255
-0.624842
-0.635911
-0.645651
-0.653948
-0.660684
-0.665747
-0.669035
-0.670458
-0.669933
-0.667392
-0.662782
-0.656066
-0.647232
-0.636292
-0.623285
-0.608278
-0.591363
-0.572666
-0.55234
-0.530572
-0.507571
-0.483568
-0.458811
-0.433554
-0.408054
-0.382562
-0.357314
-0.332527
-0.308394
-0.285078
-0.262716
-0.241411
-0.22124
-0.202251
-0.184468
-0.167896
-0.152517
-0.138303
-0.125211
-0.113191
-0.102187
-0.0921387
-0.0829822
-0.0746551
-0.0670944
-0.0602396
-0.0540315
-0.0484148
-0.0433358
-0.0387462
-0.0345981
-0.0308506
-0.0274615
-0.0243974
-0.0216206
-0.0191053
-0.0168166
-0.0147367
-0.012831
-0.0110908
-0.00947871
-0.0079972
-0.00660125
-0.00530871
-0.0040598
-0.00289471
-0.00172714
-0.000628884
-0.411456
-0.434724
-0.456835
-0.477337
-0.496455
-0.514595
-0.532037
-0.548853
-0.564963
-0.580231
-0.594529
-0.607754
-0.619821
-0.63064
-0.640114
-0.648138
-0.654601
-0.6594
-0.662438
-0.663628
-0.662895
-0.660179
-0.655434
-0.648631
-0.639764
-0.62885
-0.615934
-0.601087
-0.584406
-0.566016
-0.546071
-0.524751
-0.502261
-0.47882
-0.454665
-0.430038
-0.405179
-0.380324
-0.355697
-0.331503
-0.307922
-0.285111
-0.263199
-0.242287
-0.222451
-0.203739
-0.186177
-0.169773
-0.154514
-0.140377
-0.127325
-0.115311
-0.104286
-0.0941928
-0.0849735
-0.0765691
-0.0689204
-0.0619699
-0.0556612
-0.0499412
-0.0447581
-0.040065
-0.0358154
-0.0319691
-0.0284847
-0.0253292
-0.0224651
-0.0198669
-0.0174993
-0.0153448
-0.0133683
-0.011561
-0.00988512
-0.00834303
-0.00688888
-0.00554086
-0.00423794
-0.00302116
-0.00180233
-0.00065493
-0.407425
-0.430373
-0.452494
-0.473228
-0.492618
-0.51095
-0.528467
-0.545259
-0.561284
-0.576433
-0.590589
-0.603652
-0.615533
-0.626148
-0.635403
-0.643201
-0.649439
-0.654019
-0.656849
-0.657848
-0.656946
-0.654088
-0.649236
-0.642366
-0.633477
-0.622591
-0.609758
-0.595051
-0.578571
-0.560443
-0.54082
-0.519878
-0.497815
-0.474845
-0.451193
-0.427089
-0.402764
-0.378441
-0.354332
-0.330632
-0.307512
-0.285124
-0.26359
-0.24301
-0.223456
-0.204979
-0.187605
-0.171346
-0.156192
-0.142122
-0.129106
-0.117101
-0.10606
-0.0959314
-0.0866611
-0.0781932
-0.0704716
-0.0634415
-0.0570486
-0.051242
-0.0459712
-0.0411909
-0.0368553
-0.0329255
-0.0293601
-0.0261269
-0.0231885
-0.0205194
-0.0180846
-0.0158662
-0.0138291
-0.0119645
-0.0102338
-0.00863976
-0.00713567
-0.00574001
-0.00439072
-0.00312958
-0.00186678
-0.000677245
-0.404082
-0.426766
-0.448885
-0.469797
-0.489402
-0.507888
-0.525469
-0.542249
-0.55821
-0.573265
-0.587308
-0.60024
-0.611973
-0.622423
-0.631502
-0.639118
-0.645175
-0.649577
-0.65224
-0.653085
-0.652048
-0.649079
-0.644142
-0.637221
-0.628318
-0.61746
-0.604698
-0.59011
-0.573797
-0.555886
-0.536528
-0.515897
-0.494184
-0.471598
-0.448355
-0.424678
-0.400787
-0.376896
-0.353209
-0.329911
-0.307168
-0.285125
-0.263901
-0.243593
-0.224271
-0.205988
-0.18877
-0.172631
-0.157565
-0.143554
-0.130568
-0.118572
-0.10752
-0.0973646
-0.0880538
-0.079535
-0.0717544
-0.0646596
-0.058198
-0.0523204
-0.0469778
-0.0421257
-0.0377195
-0.0337206
-0.0300884
-0.0267909
-0.0237908
-0.021063
-0.0185723
-0.0163008
-0.0142133
-0.0123008
-0.0105246
-0.00888721
-0.00734146
-0.00590606
-0.00451809
-0.00321995
-0.00192049
-0.000695832
-0.401416
-0.423894
-0.446007
-0.467052
-0.486821
-0.505426
-0.523059
-0.539831
-0.555745
-0.570729
-0.584685
-0.597515
-0.609133
-0.619455
-0.628398
-0.635872
-0.641787
-0.646052
-0.648584
-0.64931
-0.648169
-0.645113
-0.640113
-0.633154
-0.624243
-0.613409
-0.600707
-0.586215
-0.570036
-0.552298
-0.53315
-0.512764
-0.491327
-0.469042
-0.446121
-0.422778
-0.399228
-0.375677
-0.35232
-0.329338
-0.306892
-0.28512
-0.26414
-0.244046
-0.224909
-0.206779
-0.189686
-0.173643
-0.158647
-0.144683
-0.131724
-0.119736
-0.108677
-0.0985008
-0.0891589
-0.0806007
-0.0727741
-0.0656285
-0.059113
-0.0531795
-0.0477801
-0.0428713
-0.038409
-0.0343554
-0.0306701
-0.0273214
-0.0242723
-0.0214977
-0.0189623
-0.0166485
-0.0145207
-0.01257
-0.0107573
-0.00908526
-0.00750618
-0.00603894
-0.00462002
-0.00329223
-0.00196343
-0.00071068
-0.399407
-0.42174
-0.443857
-0.465001
-0.484887
-0.503578
-0.521247
-0.538014
-0.553894
-0.568826
-0.582719
-0.595475
-0.607008
-0.617237
-0.62608
-0.63345
-0.63926
-0.643423
-0.645861
-0.646499
-0.645282
-0.642164
-0.637118
-0.630133
-0.621217
-0.610402
-0.597746
-0.583327
-0.567249
-0.54964
-0.530648
-0.510443
-0.489211
-0.467149
-0.444466
-0.421371
-0.398072
-0.374771
-0.351659
-0.328911
-0.306683
-0.285113
-0.264314
-0.244379
-0.225379
-0.207364
-0.190364
-0.174393
-0.15945
-0.145522
-0.132584
-0.120602
-0.109538
-0.0993471
-0.0899827
-0.0813954
-0.0735351
-0.0663521
-0.0597967
-0.0538217
-0.0483802
-0.0434292
-0.0389252
-0.0348307
-0.0311058
-0.027719
-0.0246332
-0.0218236
-0.0192549
-0.0169094
-0.0147514
-0.012772
-0.010932
-0.00923384
-0.00762976
-0.00613861
-0.0046965
-0.00334641
-0.00199565
-0.000721731
-0.397999
-0.420266
-0.442405
-0.463626
-0.483595
-0.502344
-0.520038
-0.536801
-0.552659
-0.567558
-0.581408
-0.594116
-0.605595
-0.615762
-0.624539
-0.63184
-0.637582
-0.641679
-0.644053
-0.644635
-0.643367
-0.640209
-0.635134
-0.628132
-0.619213
-0.608413
-0.595787
-0.581416
-0.565406
-0.547882
-0.528994
-0.50891
-0.487812
-0.465899
-0.443372
-0.42044
-0.397307
-0.374171
-0.35122
-0.328626
-0.306543
-0.285106
-0.264427
-0.244598
-0.225688
-0.207749
-0.190811
-0.174888
-0.159981
-0.146077
-0.133152
-0.121176
-0.110109
-0.0999086
-0.0905294
-0.0819233
-0.0740407
-0.066833
-0.0602513
-0.054249
-0.0487795
-0.0438006
-0.039269
-0.0351474
-0.0313962
-0.0279839
-0.0248738
-0.0220409
-0.01945
-0.0170833
-0.0149052
-0.0129067
-0.0110485
-0.00933293
-0.00771226
-0.00620504
-0.00474761
-0.00338241
-0.00201734
-0.000728784
-0.397176
-0.419455
-0.441631
-0.462907
-0.482929
-0.501714
-0.519425
-0.536189
-0.552037
-0.566921
-0.580752
-0.593437
-0.604888
-0.615026
-0.62377
-0.631038
-0.636746
-0.64081
-0.643153
-0.643707
-0.642415
-0.639238
-0.634147
-0.627137
-0.618217
-0.607424
-0.594813
-0.580467
-0.56449
-0.54701
-0.528173
-0.508148
-0.487118
-0.465278
-0.442829
-0.419978
-0.396927
-0.373873
-0.351002
-0.328485
-0.306473
-0.285102
-0.264482
-0.244706
-0.225841
-0.20794
-0.191033
-0.175134
-0.160245
-0.146353
-0.133435
-0.121461
-0.110392
-0.100188
-0.0908016
-0.0821861
-0.0742925
-0.0670726
-0.0604778
-0.0544619
-0.0489786
-0.0439858
-0.0394404
-0.0353053
-0.0315411
-0.0281161
-0.0249939
-0.0221493
-0.0195474
-0.01717
-0.0149821
-0.0129739
-0.0111068
-0.00938221
-0.00775371
-0.00623788
-0.00477356
-0.00339982
-0.00202883
-0.00073142
-0.30829
-0.338229
-0.366491
-0.392754
-0.416731
-0.438551
-0.458874
-0.477809
-0.496507
-0.518093
-0.295234
-0.324989
-0.353475
-0.380449
-0.405848
-0.429573
-0.451422
-0.472151
-0.488733
-0.50737
-0.283864
-0.312904
-0.34057
-0.367036
-0.391763
-0.41538
-0.43559
-0.455214
-0.469325
-0.487647
-0.273508
-0.301638
-0.327989
-0.35348
-0.376374
-0.398693
-0.416751
-0.435729
-0.452051
-0.473234
-0.264167
-0.291412
-0.316457
-0.341046
-0.362482
-0.384065
-0.402283
-0.422629
-0.442116
-0.463182
-0.255938
-0.282379
-0.306456
-0.330439
-0.351514
-0.373326
-0.393087
-0.414109
-0.433469
-0.452052
-0.248787
-0.274513
-0.298042
-0.321644
-0.343023
-0.364982
-0.385268
-0.40496
-0.422693
-0.440114
-0.242583
-0.267685
-0.290942
-0.314146
-0.335669
-0.356976
-0.376566
-0.39481
-0.412136
-0.429926
-0.23723
-0.261754
-0.284791
-0.307428
-0.328673
-0.34903
-0.368012
-0.385979
-0.403806
-0.421789
-0.232636
-0.25659
-0.279336
-0.301338
-0.322178
-0.341965
-0.360896
-0.37911
-0.397071
-0.41457
-0.228674
-0.252089
-0.274491
-0.295971
-0.316528
-0.336123
-0.355104
-0.373271
-0.390842
-0.407756
-0.225251
-0.248189
-0.270258
-0.291371
-0.311732
-0.331183
-0.349991
-0.367829
-0.384989
-0.401594
-0.222323
-0.244854
-0.26662
-0.287452
-0.307594
-0.326814
-0.345331
-0.362876
-0.379839
-0.39632
-0.219856
-0.24204
-0.263523
-0.284096
-0.303987
-0.322955
-0.341233
-0.358624
-0.375504
-0.391883
-0.21782
-0.239697
-0.260911
-0.281239
-0.30089
-0.319653
-0.337772
-0.355074
-0.371872
-0.388138
-0.216182
-0.237787
-0.258753
-0.278862
-0.298306
-0.316911
-0.334905
-0.352122
-0.368834
-0.385011
-0.21492
-0.236284
-0.257028
-0.276947
-0.296215
-0.314686
-0.332566
-0.349704
-0.366353
-0.382492
-0.214021
-0.235175
-0.25572
-0.275467
-0.294579
-0.312927
-0.330708
-0.347788
-0.364414
-0.380568
-0.213489
-0.234475
-0.25484
-0.274422
-0.293382
-0.311613
-0.3293
-0.346333
-0.362956
-0.379167
-0.21333
-0.234235
-0.254477
-0.273932
-0.292762
-0.310891
-0.328487
-0.345462
-0.362052
-0.378298
0.10566
0.111846
0.113116
0.106419
0.0906354
0.065305
0.0279817
-0.0272024
-0.109162
-0.209355
0.059448
0.0611552
0.0533285
0.0378295
0.0146549
-0.0179879
-0.0639384
-0.129651
-0.222621
-0.332772
0.0208551
0.013895
-0.003781
-0.0275702
-0.0576271
-0.0970645
-0.150781
-0.225812
-0.328923
-0.439725
-0.0242789
-0.0372788