/*--------------------------------*- C++ -*----------------------------------*\
| =========                 |                                                 |
| \\      /  F ield         | OpenFOAM: The Open Source CFD Toolbox           |
|  \\    /   O peration     | Version:  4.1                                   |
|   \\  /    A nd           | Web:      www.OpenFOAM.org                      |
|    \\/     M anipulation  |                                                 |
\*---------------------------------------------------------------------------*/
FoamFile
{
    version     2.0;
    format      ascii;
    class       volScalarField;
    location    "15";
    object      p;
}
// * * * * * * * * * * * * * * * * * * * * * * * * * * * * * * * * * * * * * //

dimensions      [0 2 -2 0 0 0 0];

internalField   nonuniform List<scalar> 
3800
(
-0.530076
-0.528097
-0.523994
-0.519559
-0.515775
-0.51298
-0.51028
-0.510283
-0.508865
-0.513634
-0.535965
-0.533262
-0.528411
-0.523138
-0.518285
-0.513636
-0.509067
-0.504725
-0.500457
-0.498381
-0.54454
-0.540549
-0.534507
-0.527937
-0.521181
-0.513728
-0.505415
-0.496925
-0.48857
-0.481135
-0.556256
-0.550328
-0.542218
-0.5337
-0.523737
-0.512027
-0.499231
-0.486687
-0.47428
-0.46443
-0.57174
-0.562883
-0.552081
-0.540325
-0.525317
-0.508131
-0.490686
-0.474058
-0.458883
-0.446819
-0.592258
-0.577885
-0.564457
-0.547107
-0.525152
-0.501886
-0.479644
-0.459468
-0.441768
-0.427433
-0.618531
-0.596057
-0.57787
-0.552185
-0.522197
-0.492714
-0.465979
-0.442493
-0.422473
-0.405933
-0.648331
-0.618711
-0.589916
-0.553391
-0.515203
-0.480039
-0.44925
-0.422873
-0.400646
-0.381732
-0.67398
-0.641982
-0.59844
-0.549418
-0.503354
-0.463195
-0.429001
-0.400171
-0.375871
-0.354899
-0.692098
-0.658404
-0.600245
-0.539318
-0.486066
-0.441599
-0.404618
-0.373862
-0.347945
-0.325573
-0.497535
-0.500908
-0.503776
-0.507425
-0.511993
-0.517292
-0.52321
-0.529725
-0.536879
-0.544643
-0.499589
-0.502668
-0.505366
-0.5089
-0.513357
-0.518541
-0.524331
-0.530677
-0.537631
-0.54531
-0.503262
-0.505742
-0.50812
-0.511389
-0.515578
-0.520484
-0.525977
-0.531967
-0.538493
-0.545926
-0.507752
-0.509425
-0.511307
-0.514115
-0.517819
-0.52222
-0.527192
-0.532626
-0.53848
-0.545319
-0.512256
-0.513038
-0.514235
-0.51633
-0.519273
-0.52289
-0.527072
-0.531748
-0.53678
-0.542404
-0.516189
-0.516125
-0.516473
-0.517574
-0.519457
-0.522013
-0.525149
-0.528842
-0.532948
-0.537314
-0.519303
-0.518564
-0.517948
-0.51782
-0.518397
-0.519689
-0.521625
-0.524251
-0.527755
-0.529708
-0.521698
-0.520516
-0.518901
-0.517439
-0.51662
-0.516629
-0.517399
-0.518989
-0.523007
-0.521307
-0.523796
-0.522358
-0.519791
-0.517087
-0.515022
-0.513982
-0.51379
-0.51465
-0.519163
-0.515779
-0.526289
-0.524668
-0.521257
-0.517575
-0.514579
-0.512768
-0.511513
-0.512469
-0.514639
-0.514798
-0.55582
-0.571078
-0.587663
-0.60525
-0.623708
-0.642744
-0.662104
-0.681486
-0.70061
-0.719192
-0.736971
-0.753707
-0.769186
-0.783218
-0.795641
-0.806316
-0.815135
-0.822017
-0.826889
-0.829583
-0.829825
-0.827332
-0.821845
-0.813416
-0.801776
-0.786628
-0.767688
-0.74472
-0.717555
-0.686132
-0.650529
-0.610991
-0.567952
-0.522034
-0.474018
-0.424816
-0.375397
-0.326734
-0.279925
-0.235724
-0.194769
-0.157495
-0.12419
-0.0949568
-0.0697098
-0.0483016
-0.0304729
-0.0159075
-0.0042505
0.00486428
0.0117974
0.0168908
0.0204587
0.0227828
0.0241111
0.024658
0.0246045
0.0241012
0.0232708
0.0222128
0.0210054
0.0197109
0.0183747
0.0170338
0.0157108
0.0144269
0.0131882
0.012008
0.0108788
0.00981321
0.00878918
0.00782708
0.00688437
0.006001
0.00510068
0.00426271
0.00335106
0.00252069
0.0015298
0.00068428
-0.556662
-0.571755
-0.588253
-0.605793
-0.624252
-0.643326
-0.662746
-0.682206
-0.701417
-0.72009
-0.737963
-0.754792
-0.770364
-0.784491
-0.797014
-0.807797
-0.816727
-0.823711
-0.828669
-0.831507
-0.83196
-0.829737
-0.824647
-0.816586
-0.805334
-0.790603
-0.772103
-0.74958
-0.722845
-0.691811
-0.656529
-0.61722
-0.574302
-0.528402
-0.480282
-0.430871
-0.381168
-0.332084
-0.284876
-0.24028
-0.198954
-0.161248
-0.127561
-0.0979488
-0.0724073
-0.0507222
-0.0326437
-0.0178571
-0.00600423
0.00328438
0.0103723
0.0156044
0.0192974
0.0217353
0.0231664
0.0238049
0.0238331
0.0234034
0.0226394
0.0216417
0.0204888
0.0192435
0.0179521
0.0166517
0.0153656
0.0141152
0.012907
0.0117548
0.0106511
0.00960907
0.00860683
0.00766486
0.00674131
0.00587561
0.00499309
0.00417111
0.00327759
0.00246211
0.00149221
0.000659265
-0.557562
-0.572318
-0.588626
-0.60609
-0.624564
-0.643711
-0.663243
-0.682848
-0.702222
-0.721071
-0.739125
-0.756138
-0.771893
-0.786207
-0.798925
-0.809917
-0.819071
-0.826288
-0.831474
-0.834551
-0.835381
-0.83364
-0.829114
-0.821705
-0.811159
-0.797183
-0.779478
-0.757768
-0.731826
-0.70152
-0.666863
-0.628049
-0.585446
-0.539699
-0.491523
-0.441888
-0.39192
-0.342048
-0.29425
-0.249003
-0.206934
-0.16849
-0.134194
-0.104019
-0.0779203
-0.0557261
-0.037183
-0.0219727
-0.00973505
-9.70495e-05
0.0073085
0.0128296
0.016786
0.0194643
0.0211152
0.0219541
0.0221631
0.0218959
0.0212787
0.0204137
0.0193811
0.0182446
0.0170517
0.0158404
0.0146351
0.0134578
0.0123163
0.0112243
0.0101762
0.00918422
0.00822933
0.00732942
0.00644774
0.00561785
0.00477486
0.00398366
0.00313151
0.00234207
0.00142144
0.000607237
-0.557278
-0.571628
-0.587687
-0.605075
-0.623575
-0.642828
-0.662515
-0.682319
-0.701924
-0.721028
-0.739349
-0.756636
-0.77267
-0.787265
-0.800272
-0.811565
-0.821042
-0.82861
-0.834172
-0.837625
-0.838892
-0.837685
-0.833886
-0.827296
-0.817628
-0.804603
-0.787916
-0.767263
-0.742377
-0.713076
-0.679356
-0.641417
-0.599333
-0.553967
-0.505948
-0.456299
-0.406556
-0.35451
-0.306691
-0.260849
-0.218088
-0.178996
-0.143942
-0.113025
-0.0862249
-0.0633722
-0.0442083
-0.0284139
-0.0156295
-0.00548125
0.00239942
0.00836182
0.0127272
0.0157835
0.0177831
0.0189429
0.0194466
0.0194474
0.0190728
0.0184272
0.0175933
0.0166367
0.0156066
0.0145424
0.0134703
0.0124132
0.0113809
0.0103874
0.00942987
0.00851924
0.00764073
0.00680883
0.00599391
0.0052218
0.00444074
0.00369957
0.00291054
0.00216491
0.00131689
0.00053886
-0.554616
-0.568611
-0.584548
-0.601845
-0.620507
-0.639842
-0.659691
-0.679716
-0.699593
-0.719012
-0.73768
-0.755335
-0.771752
-0.786742
-0.800149
-0.811851
-0.821751
-0.829767
-0.835813
-0.839789
-0.841566
-0.840995
-0.838009
-0.832258
-0.823529
-0.811543
-0.795982
-0.776526
-0.752877
-0.72479
-0.692234
-0.65536
-0.61351
-0.568904
-0.521352
-0.471804
-0.421341
-0.370546
-0.321813
-0.275363
-0.231928
-0.192139
-0.156351
-0.124687
-0.097134
-0.0735393
-0.0536508
-0.0371527
-0.0236899
-0.0128921
-0.00439333
0.00215372
0.007069
0.0106396
0.0131179
0.0147213
0.0156342
0.0160111
0.0159797
0.0156453
0.0150933
0.0143918
0.0135926
0.012737
0.0118537
0.0109669
0.0100893
0.00923508
0.00840503
0.00760912
0.00683757
0.00610138
0.00537905
0.00468843
0.00399189
0.00332214
0.00261687
0.00193624
0.00118053
0.000462373
-0.548998
-0.563276
-0.579091
-0.596318
-0.614801
-0.63422
-0.654218
-0.674463
-0.694635
-0.714414
-0.733496
-0.751607
-0.768511
-0.784007
-0.797935
-0.810168
-0.820609
-0.829178
-0.835801
-0.840399
-0.842857
-0.843029
-0.840749
-0.835832
-0.828029
-0.817057
-0.802597
-0.784317
-0.761904
-0.735085
-0.703681
-0.667771
-0.627493
-0.583676
-0.536807
-0.487737
-0.437486
-0.387095
-0.338134
-0.291378
-0.247536
-0.207217
-0.170803
-0.138456
-0.110173
-0.0858203
-0.0651601
-0.0478869
-0.0336554
-0.0221041
-0.0128744
-0.00562503
-4.0798e-05
0.0041619
0.00723307
0.00938894
0.0108139
0.0116629
0.0120647
0.0121256
0.0119323
0.0115554
0.01105
0.0104598
0.00981668
0.00914664
0.00846574
0.00778897
0.00712107
0.00647135
0.00583549
0.00522141
0.00461587
0.00402963
0.00343849
0.0028612
0.00225818
0.00166377
0.00101679
0.000382653
-0.54146
-0.556317
-0.571763
-0.588597
-0.606968
-0.626371
-0.646391
-0.666767
-0.687194
-0.707322
-0.726832
-0.745441
-0.762899
-0.77899
-0.793538
-0.806408
-0.817493
-0.826712
-0.833987
-0.839239
-0.842394
-0.843295
-0.841769
-0.837657
-0.830732
-0.820716
-0.807295
-0.790136
-0.768915
-0.743353
-0.713245
-0.678562
-0.639555
-0.596806
-0.5509
-0.50266
-0.453103
-0.403346
-0.354639
-0.30793
-0.263971
-0.223368
-0.186524
-0.153632
-0.124712
-0.0996488
-0.078226
-0.0601561
-0.0451101
-0.0327413
-0.0227038
-0.0146671
-0.00832449
-0.00339916
0.000354295
0.00314914
0.00516835
0.00656673
0.007474
0.00799759
0.00822578
0.00823085
0.00807113
0.00779306
0.00743232
0.00701708
0.0065673
0.00609922
0.00562188
0.00514445
0.00466801
0.00419828
0.00372964
0.00326738
0.00279899
0.00233249
0.0018469
0.00135722
0.000831895
0.000302065
-0.533212
-0.548875
-0.563661
-0.579828
-0.597891
-0.616987
-0.636706
-0.656929
-0.677375
-0.697672
-0.717484
-0.736519
-0.754509
-0.771217
-0.786446
-0.80004
-0.811874
-0.821854
-0.829895
-0.835906
-0.839823
-0.841452
-0.840743
-0.837444
-0.831343
-0.82219
-0.809683
-0.793503
-0.773337
-0.748921
-0.720064
-0.686735
-0.649136
-0.607734
-0.563139
-0.516154
-0.46776
-0.419033
-0.371089
-0.324882
-0.28118
-0.240585
-0.203524
-0.170227
-0.140746
-0.114998
-0.0927963
-0.073882
-0.0579518
-0.0446812
-0.0337436
-0.0248239
-0.0176277
-0.0118872
-0.00736351
-0.00384731
-0.00115757
0.000860096
0.00233636
0.00338026
0.00408263
0.00451804
0.00474782
0.00482125
0.00477797
0.00464878
0.00445789
0.00422345
0.00395897
0.00367422
0.00337551
0.0030674
0.00275104
0.00242805
0.0020956
0.0017542
0.00139747
0.00102685
0.000632789
0.000222173
-0.526611
-0.541527
-0.55465
-0.570061
-0.588039
-0.607009
-0.626567
-0.646714
-0.667179
-0.687589
-0.707626
-0.726998
-0.745426
-0.762658
-0.778476
-0.792707
-0.805205
-0.815861
-0.824587
-0.83126
-0.835771
-0.838015
-0.837989
-0.835364
-0.82999
-0.821603
-0.809917
-0.794643
-0.77549
-0.75221
-0.72464
-0.692762
-0.656765
-0.617065
-0.574217
-0.528965
-0.482216
-0.434963
-0.388216
-0.342887
-0.299727
-0.259341
-0.222186
-0.188536
-0.158493
-0.132017
-0.108964
-0.0891112
-0.0721903
-0.0579055
-0.0459541
-0.0360403
-0.0278844
-0.0212295
-0.0158439
-0.0115226
-0.00808656
-0.00538142
-0.00327513
-0.00165645
-0.000431484
0.000477414
0.00113545
0.00159527
0.00190069
0.00208561
0.00217845
0.00219978
0.00216762
0.00209312
0.00198751
0.00185529
0.00170359
0.00153199
0.00134566
0.00114024
0.000920813
0.000679623
0.000423772
0.000143112
-0.527574
-0.537563
-0.546859
-0.560376
-0.57683
-0.594564
-0.613284
-0.632867
-0.652959
-0.673183
-0.693219
-0.712764
-0.731527
-0.749238
-0.765657
-0.780586
-0.793846
-0.805305
-0.814842
-0.822374
-0.827933
-0.831297
-0.831745
-0.829741
-0.825094
-0.81745
-0.806526
-0.792062
-0.773793
-0.751498
-0.72504
-0.69441
-0.65977
-0.621491
-0.580121
-0.536378
-0.491114
-0.445269
-0.399802
-0.355593
-0.313358
-0.273656
-0.236935
-0.20348
-0.173411
-0.146714
-0.123268
-0.102884
-0.0853219
-0.0703159
-0.0575909
-0.0468758
-0.0379116
-0.0304586
-0.0242982
-0.0192353
-0.0150974
-0.0117344
-0.00901631
-0.00683238
-0.00508782
-0.0037035
-0.00261183
-0.00175794
-0.00109482
-0.000586033
-0.000199449
8.77823e-05
0.000297656
0.000442925
0.00053916
0.000591401
0.000611902
0.000599329
0.000565423
0.000502863
0.00042579
0.000320311
0.000206522
6.2426e-05
-0.523291
-0.530441
-0.540852
-0.554441
-0.570288
-0.587709
-0.606309
-0.625736
-0.645643
-0.665708
-0.685631
-0.705118
-0.723878
-0.74164
-0.758154
-0.773211
-0.78662
-0.798221
-0.80789
-0.815537
-0.821093
-0.82425
-0.824773
-0.822687
-0.817806
-0.809852
-0.798573
-0.783725
-0.765083
-0.742469
-0.715805
-0.685141
-0.650696
-0.612876
-0.572263
-0.529578
-0.485648
-0.44136
-0.397587
-0.35512
-0.31461
-0.27656
-0.241341
-0.209181
-0.180172
-0.154287
-0.131412
-0.111373
-0.0939548
-0.0789218
-0.0660298
-0.055038
-0.0457155
-0.037847
-0.031235
-0.0257015
-0.0210877
-0.0172542
-0.0140788
-0.0114565
-0.00929603
-0.00752072
-0.00606398
-0.00487141
-0.00389519
-0.00309827
-0.00244659
-0.0019163
-0.0014828
-0.00113247
-0.000846463
-0.000619435
-0.000435062
-0.000295345
-0.000183217
-0.000108222
-4.88589e-05
-2.36659e-05
-1.92712e-06
-1.45199e-05
-0.515742
-0.527502
-0.539238
-0.552229
-0.567347
-0.58447
-0.602964
-0.622224
-0.641845
-0.661546
-0.681072
-0.700157
-0.718521
-0.735898
-0.752036
-0.76672
-0.779771
-0.791007
-0.800337
-0.807533
-0.812226
-0.814715
-0.814817
-0.812208
-0.806673
-0.79802
-0.786047
-0.77055
-0.751352
-0.72834
-0.7015
-0.67095
-0.636959
-0.59996
-0.560533
-0.519372
-0.477248
-0.43496
-0.393281
-0.352903
-0.314402
-0.278211
-0.244635
-0.213864
-0.185973
-0.160939
-0.138665
-0.119
-0.10176
-0.0867403
-0.0737292
-0.0625146
-0.0528915
-0.0446671
-0.0376629
-0.0317165
-0.0266814
-0.0224279
-0.018841
-0.0158213
-0.013281
-0.0111462
-0.00935142
-0.0078431
-0.00657315
-0.00550422
-0.00460099
-0.00383886
-0.00319125
-0.00264372
-0.00217487
-0.00177887
-0.00143613
-0.00114889
-0.000895799
-0.000687823
-0.000497581
-0.000346939
-0.000196777
-8.46535e-05
-0.506514
-0.524184
-0.537008
-0.549346
-0.563767
-0.580546
-0.598876
-0.617921
-0.637175
-0.656374
-0.67532
-0.693794
-0.711539
-0.728298
-0.743825
-0.757902
-0.770354
-0.780992
-0.789671
-0.796149
-0.800247
-0.802107
-0.801561
-0.798271
-0.792028
-0.782693
-0.770111
-0.754124
-0.734609
-0.711512
-0.68488
-0.654876
-0.621796
-0.586072
-0.548255
-0.508987
-0.46896
-0.428877
-0.38941
-0.35116
-0.314631
-0.280203
-0.248146
-0.218629
-0.191726
-0.16743
-0.145664
-0.126305
-0.109198
-0.0941681
-0.0810306
-0.0695991
-0.0596911
-0.0511333
-0.0437634
-0.0374325
-0.032005
-0.0273598
-0.0233885
-0.0199965
-0.0170995
-0.0146259
-0.0125118
-0.0107042
-0.00915495
-0.00782664
-0.00668287
-0.00569837
-0.00484486
-0.00410715
-0.00346159
-0.00290181
-0.00240539
-0.00197454
-0.0015843
-0.00124657
-0.000929036
-0.000656129
-0.000381809
-0.000149358
-0.496989
-0.517807
-0.531849
-0.544184
-0.558235
-0.574704
-0.592812
-0.611589
-0.630434
-0.649078
-0.667371
-0.685145
-0.70218
-0.718231
-0.733058
-0.746445
-0.758201
-0.768151
-0.776122
-0.781987
-0.785644
-0.786921
-0.785681
-0.781714
-0.774854
-0.764977
-0.751959
-0.735687
-0.716088
-0.693162
-0.666999
-0.637792
-0.605847
-0.57158
-0.535502
-0.498193
-0.460271
-0.422354
-0.38503
-0.348827
-0.314183
-0.28144
-0.250842
-0.222543
-0.196616
-0.173065
-0.151832
-0.132817
-0.115891
-0.100904
-0.0876958
-0.0761039
-0.0659664
-0.0571281
-0.0494422
-0.042773
-0.0369955
-0.0319971
-0.0276761
-0.0239429
-0.020717
-0.0179295
-0.0155178
-0.0134303
-0.0116189
-0.0100461
-0.00867491
-0.00747947
-0.00643012
-0.00551094
-0.0046964
-0.00397954
-0.0033355
-0.00276637
-0.00224403
-0.00178106
-0.00134098
-0.000950314
-0.00055735
-0.000210365
-0.486168
-0.508507
-0.524231
-0.53736
-0.551497
-0.567779
-0.585642
-0.60412
-0.622552
-0.640645
-0.658281
-0.675335
-0.691626
-0.706928
-0.721011
-0.733664
-0.74469
-0.75393
-0.761226
-0.766481
-0.769611
-0.770296
-0.768404
-0.763828
-0.756456
-0.746176
-0.732888
-0.716516
-0.697035
-0.674484
-0.648986
-0.62075
-0.590078
-0.557363
-0.523071
-0.487723
-0.451866
-0.416043
-0.380768
-0.346503
-0.313636
-0.282473
-0.253237
-0.226072
-0.201055
-0.178199
-0.157467
-0.13878
-0.122031
-0.107096
-0.0938357
-0.0821088
-0.0717721
-0.0626867
-0.0547198
-0.0477474
-0.0416543
-0.0363357
-0.0316961
-0.0276508
-0.0241227
-0.0210455
-0.0183583
-0.0160106
-0.0139546
-0.0121531
-0.0105684
-0.0091743
-0.00793995
-0.00684887
-0.00587385
-0.00500741
-0.00422257
-0.00352123
-0.00287255
-0.00228967
-0.00173246
-0.0012293
-0.000723649
-0.00026801
-0.474135
-0.497932
-0.515519
-0.529863
-0.544427
-0.560657
-0.578282
-0.596444
-0.614473
-0.632052
-0.649068
-0.665428
-0.680983
-0.695536
-0.708866
-0.720774
-0.73107
-0.7396
-0.74622
-0.750819
-0.753339
-0.753435
-0.75097
-0.745884
-0.738105
-0.727546
-0.714126
-0.697802
-0.678583
-0.656541
-0.631815
-0.60462
-0.575249
-0.544064
-0.511489
-0.477989
-0.444049
-0.410149
-0.376741
-0.344234
-0.312974
-0.28324
-0.255239
-0.22911
-0.20493
-0.182724
-0.162469
-0.144106
-0.127546
-0.112685
-0.0994027
-0.0875762
-0.0770786
-0.0677856
-0.0595771
-0.0523399
-0.0459678
-0.0403636
-0.0354376
-0.0311098
-0.0273068
-0.0239646
-0.0210243
-0.0184366
-0.0161541
-0.01414
-0.0123561
-0.0107761
-0.00936819
-0.00811534
-0.00698894
-0.00598106
-0.00506284
-0.00423605
-0.00346741
-0.00277058
-0.00210223
-0.00149244
-0.000880289
-0.000322085
-0.462604
-0.487512
-0.506632
-0.522235
-0.537409
-0.553709
-0.571127
-0.588975
-0.606623
-0.623737
-0.640195
-0.655919
-0.670788
-0.684628
-0.69724
-0.708433
-0.71803
-0.725881
-0.731849
-0.735812
-0.737702
-0.737239
-0.734288
-0.728793
-0.720706
-0.709962
-0.696508
-0.680324
-0.661447
-0.639966
-0.616033
-0.589861
-0.561728
-0.531969
-0.500969
-0.469147
-0.436933
-0.404755
-0.373017
-0.342082
-0.312263
-0.283816
-0.256933
-0.231747
-0.208337
-0.186736
-0.166931
-0.14888
-0.13251
-0.117734
-0.10445
-0.0925491
-0.0819196
-0.0724503
-0.0640327
-0.0565633
-0.0499443
-0.0440853
-0.0389022
-0.0343194
-0.0302669
-0.0266833
-0.0235115
-0.0207033
-0.0182122
-0.0160014
-0.0140329
-0.01228
-0.0107102
-0.0093061
-0.00803785
-0.00689713
-0.00585344
-0.00490846
-0.00402675
-0.00322245
-0.00244937
-0.00173917
-0.00102698
-0.000372583
-0.452561
-0.477732
-0.497902
-0.514658
-0.530532
-0.547011
-0.564281
-0.581844
-0.599146
-0.615853
-0.631827
-0.646993
-0.661249
-0.674445
-0.686401
-0.696941
-0.705897
-0.713124
-0.718491
-0.721876
-0.72318
-0.722215
-0.718855
-0.713036
-0.704717
-0.693858
-0.680428
-0.664433
-0.645923
-0.625003
-0.601829
-0.57661
-0.549609
-0.521138
-0.491549
-0.461218
-0.430535
-0.399882
-0.369621
-0.340081
-0.311544
-0.284245
-0.258364
-0.234029
-0.211319
-0.190272
-0.170887
-0.153132
-0.13695
-0.122267
-0.108997
-0.0970433
-0.0863079
-0.0766911
-0.0680943
-0.0604232
-0.0535873
-0.0475026
-0.0420903
-0.0372788
-0.0330014
-0.0291992
-0.0258169
-0.0228075
-0.0201252
-0.0177338
-0.0155951
-0.0136824
-0.0119626
-0.0104181
-0.00901776
-0.00775315
-0.00659228
-0.00553675
-0.00454923
-0.00364431
-0.00277324
-0.00196915
-0.00116358
-0.000419533
-0.443734
-0.468609
-0.489481
-0.507248
-0.523843
-0.540584
-0.557781
-0.575107
-0.592108
-0.608467
-0.624031
-0.638721
-0.652447
-0.665077
-0.676454
-0.686411
-0.694794
-0.701463
-0.706291
-0.709159
-0.70996
-0.708561
-0.704857
-0.698777
-0.690286
-0.679359
-0.665989
-0.650199
-0.632054
-0.611666
-0.589192
-0.564837
-0.538851
-0.511526
-0.483183
-0.454167
-0.42483
-0.395517
-0.366556
-0.338243
-0.310839
-0.284559
-0.259571
-0.235998
-0.21392
-0.193379
-0.174381
-0.156904
-0.140904
-0.126319
-0.113074
-0.101086
-0.0902664
-0.0805266
-0.0717771
-0.0639312
-0.0569056
-0.0506219
-0.0450061
-0.0399904
-0.0355112
-0.0315121
-0.0279394
-0.0247474
-0.0218911
-0.0193348
-0.0170402
-0.0149809
-0.0131231
-0.0114489
-0.00992659
-0.00854728
-0.00727778
-0.00611964
-0.00503384
-0.00403544
-0.00307336
-0.0021821
-0.00128997
-0.000462926
-0.435658
-0.460173
-0.48155
-0.500167
-0.517442
-0.534489
-0.551675
-0.56882
-0.585566
-0.601628
-0.616847
-0.631135
-0.644408
-0.65655
-0.667421
-0.676867
-0.684746
-0.690922
-0.695275
-0.697693
-0.698071
-0.696306
-0.69231
-0.686019
-0.677399
-0.666438
-0.653148
-0.637567
-0.619769
-0.599871
-0.578032
-0.554451
-0.529366
-0.503051
-0.475802
-0.447937
-0.419776
-0.391634
-0.363809
-0.336573
-0.310164
-0.284782
-0.260585
-0.237692
-0.216181
-0.196097
-0.177453
-0.160236
-0.144409
-0.129922
-0.11671
-0.104701
-0.0938158
-0.0839743
-0.075095
-0.0670987
-0.0599079
-0.0534496
-0.047654
-0.0424571
-0.0377981
-0.0336227
-0.0298789
-0.0265223
-0.0235086
-0.0208027
-0.0183665
-0.0161735
-0.0141897
-0.0123969
-0.0107627
-0.00927809
-0.00790869
-0.00665611
-0.00547978
-0.00439523
-0.00334932
-0.00237781
-0.00140606
-0.000502745
-0.428299
-0.452537
-0.474272
-0.493565
-0.511436
-0.528794
-0.546017
-0.563028
-0.579562
-0.595371
-0.610298
-0.624247
-0.637136
-0.64886
-0.659293
-0.668296
-0.675735
-0.681482
-0.685423
-0.687454
-0.687477
-0.685405
-0.681165
-0.674701
-0.665984
-0.655015
-0.641816
-0.626439
-0.608964
-0.589512
-0.568241
-0.545346
-0.521055
-0.495623
-0.469329
-0.442465
-0.415326
-0.388201
-0.361365
-0.335068
-0.309529
-0.284935
-0.261435
-0.239144
-0.218138
-0.198464
-0.180141
-0.163161
-0.147497
-0.133106
-0.119932
-0.107912
-0.0969762
-0.0870509
-0.0780622
-0.0699369
-0.0626032
-0.0559926
-0.0500394
-0.0446827
-0.0398643
-0.0355322
-0.0316358
-0.028132
-0.0249772
-0.0221368
-0.0195729
-0.0172591
-0.0151611
-0.0132608
-0.011525
-0.00994448
-0.00848407
-0.00714535
-0.00588643
-0.00472325
-0.00360082
-0.00255609
-0.00151176
-0.000538972
-0.421813
-0.445771
-0.467727
-0.487538
-0.505907
-0.523557
-0.540844
-0.557761
-0.574121
-0.589716
-0.604395
-0.618059
-0.630623
-0.641992
-0.65205
-0.660671
-0.66773
-0.673108
-0.676696
-0.678397
-0.678122
-0.675794
-0.671351
-0.664746
-0.655961
-0.645
-0.631898
-0.616713
-0.599533
-0.580481
-0.559715
-0.537423
-0.513823
-0.489159
-0.463692
-0.437693
-0.411437
-0.385192
-0.359211
-0.333726
-0.308942
-0.285035
-0.262145
-0.240381
-0.219821
-0.200512
-0.182475
-0.16571
-0.150196
-0.135896
-0.122764
-0.110741
-0.099766
-0.0897723
-0.0806918
-0.0724569
-0.0650003
-0.0582579
-0.0521675
-0.0466711
-0.0417128
-0.0372426
-0.0332113
-0.029577
-0.0262967
-0.0233366
-0.0206586
-0.0182368
-0.0160365
-0.0140396
-0.0122124
-0.0105456
-0.00900319
-0.00758677
-0.0062533
-0.00501912
-0.00382761
-0.00271679
-0.001607
-0.000571596
-0.416234
-0.439857
-0.461924
-0.482126
-0.500907
-0.518819
-0.536182
-0.553037
-0.569257
-0.584672
-0.599143
-0.612568
-0.62486
-0.635929
-0.645669
-0.653966
-0.660702
-0.665765
-0.669054
-0.670476
-0.669951
-0.66741
-0.6628
-0.656084
-0.64725
-0.63631
-0.623303
-0.608296
-0.591381
-0.572683
-0.552358
-0.530589
-0.507588
-0.483586
-0.458828
-0.433571
-0.408072
-0.38258
-0.357331
-0.332544
-0.308411
-0.285095
-0.262733
-0.241428
-0.221256
-0.202267
-0.184485
-0.167912
-0.152533
-0.138318
-0.125226
-0.113207
-0.102202
-0.0921534
-0.0829965
-0.0746689
-0.0671077
-0.0602524
-0.0540436
-0.0484262
-0.0433465
-0.0387559
-0.0346067
-0.030858
-0.0274675
-0.0244019
-0.0216234
-0.0191061
-0.0168153
-0.0147327
-0.0128244
-0.0110809
-0.0094655
-0.0079799
-0.00658001
-0.00528256
-0.00402951
-0.00285981
-0.00169174
-0.000600604
-0.411474
-0.434743
-0.456853
-0.477356
-0.496473
-0.514613
-0.532056
-0.548871
-0.564981
-0.580249
-0.594547
-0.607772
-0.619839
-0.630658
-0.640133
-0.648156
-0.654619
-0.659418
-0.662456
-0.663646
-0.662913
-0.660197
-0.655452
-0.648649
-0.639782
-0.628868
-0.615952
-0.601105
-0.584424
-0.566033
-0.546089
-0.524769
-0.502278
-0.478838
-0.454683
-0.430055
-0.405196
-0.380342
-0.355715
-0.33152
-0.307939
-0.285128
-0.263216
-0.242304
-0.222468
-0.203755
-0.186193
-0.169789
-0.15453
-0.140393
-0.12734
-0.115326
-0.104301
-0.0942072
-0.0849875
-0.0765826
-0.0689334
-0.0619823
-0.0556729
-0.0499522
-0.0447682
-0.0400741
-0.0358234
-0.0319758
-0.02849
-0.0253329
-0.022467
-0.0198667
-0.0174969
-0.0153397
-0.0133604
-0.0115499
-0.0098706
-0.00832439
-0.0068663
-0.00551338
-0.00420636
-0.00298506
-0.00176592
-0.000625992
-0.407443
-0.430391
-0.452512
-0.473247
-0.492637
-0.510968
-0.528485
-0.545278
-0.561303
-0.576451
-0.590608
-0.60367
-0.615552
-0.626166
-0.635422
-0.643219
-0.649458
-0.654037
-0.656868
-0.657866
-0.656964
-0.654106
-0.649254
-0.642384
-0.633495
-0.622609
-0.609776
-0.595069
-0.578588
-0.56046
-0.540837
-0.519896
-0.497833
-0.474863
-0.45121
-0.427107
-0.402781
-0.378458
-0.354349
-0.330649
-0.307529
-0.285141
-0.263607
-0.243027
-0.223473
-0.204995
-0.187622
-0.171362
-0.156207
-0.142138
-0.129121
-0.117116
-0.106074
-0.0959456
-0.0866748
-0.0782065
-0.0704843
-0.0634536
-0.05706
-0.0512525
-0.0459809
-0.0411995
-0.0368628
-0.0329316
-0.0293648
-0.0261299
-0.0231896
-0.0205184
-0.0180812
-0.0158601
-0.0138202
-0.0119522
-0.0102182
-0.00861998
-0.00711195
-0.00571141
-0.00435808
-0.00309248
-0.00182954
-0.000647754
-0.404101
-0.426784
-0.448903
-0.469815
-0.48942
-0.507906
-0.525488
-0.542267
-0.558228
-0.573283
-0.587326
-0.600258
-0.611991
-0.622441
-0.631521
-0.639136
-0.645193
-0.649596
-0.652258
-0.653103
-0.652066
-0.649097
-0.64416
-0.637239
-0.628336
-0.617478
-0.604716
-0.590128
-0.573815
-0.555904
-0.536546
-0.515914
-0.494202
-0.471615
-0.448373
-0.424695
-0.400804
-0.376914
-0.353226
-0.329928
-0.307185
-0.285142
-0.263918
-0.243609
-0.224288
-0.206004
-0.188787
-0.172647
-0.15758
-0.143569
-0.130583
-0.118587
-0.107534
-0.0973786
-0.0880673
-0.079548
-0.0717669
-0.0646714
-0.0582091
-0.0523307
-0.0469871
-0.0421339
-0.0377265
-0.0337262
-0.0300925
-0.0267932
-0.0237913
-0.0210613
-0.0185682
-0.016294
-0.0142036
-0.0122877
-0.0105081
-0.0088665
-0.00731682
-0.00587654
-0.00448458
-0.00318203
-0.00188256
-0.000665891
-0.401434
-0.423912
-0.446026
-0.467071
-0.486839
-0.505444
-0.523077
-0.539849
-0.555763
-0.570747
-0.584703
-0.597533
-0.609151
-0.619474
-0.628416
-0.63589
-0.641805
-0.64607
-0.648602
-0.649328
-0.648187
-0.645131
-0.640131
-0.633172
-0.624261
-0.613427
-0.600725
-0.586233
-0.570054
-0.552316
-0.533168
-0.512781
-0.491344
-0.46906
-0.446138
-0.422796
-0.399245
-0.375694
-0.352337
-0.329355
-0.306909
-0.285137
-0.264157
-0.244063
-0.224926
-0.206795
-0.189702
-0.173659
-0.158663
-0.144699
-0.13174
-0.119751
-0.108691
-0.0985147
-0.0891723
-0.0806135
-0.0727864
-0.0656401
-0.0591238
-0.0531895
-0.0477891
-0.0428792
-0.0384157
-0.0343606
-0.0306738
-0.0273233
-0.0242723
-0.0214954
-0.0189577
-0.0166411
-0.0145104
-0.0125562
-0.0107401
-0.00906381
-0.00748079
-0.00600868
-0.00458582
-0.00325368
-0.00192498
-0.000680395
-0.399426
-0.421758
-0.443875
-0.465019
-0.484906
-0.503596
-0.521266
-0.538032
-0.553912
-0.568845
-0.582737
-0.595493
-0.607027
-0.617256
-0.626098
-0.633468
-0.639278
-0.643442
-0.645879
-0.646517
-0.6453
-0.642182
-0.637136
-0.630151
-0.621235
-0.61042
-0.597764
-0.583344
-0.567267
-0.549657
-0.530666
-0.510461
-0.489228
-0.467167
-0.444483
-0.421388
-0.398089
-0.374788
-0.351676
-0.328928
-0.3067
-0.285129
-0.264331
-0.244396
-0.225395
-0.20738
-0.19038
-0.174409
-0.159466
-0.145537
-0.132598
-0.120616
-0.109552
-0.0993609
-0.0899959
-0.0814082
-0.0735472
-0.0663635
-0.0598073
-0.0538315
-0.0483889
-0.0434368
-0.0389316
-0.0348357
-0.0311092
-0.0277205
-0.0246328
-0.0218209
-0.0192498
-0.0169014
-0.0147405
-0.0127577
-0.0109142
-0.00921184
-0.00760383
-0.00610781
-0.00466178
-0.00330739
-0.00195684
-0.000691234
-0.398018
-0.420284
-0.442423
-0.463644
-0.483613
-0.502362
-0.520056
-0.536819
-0.552677
-0.567576
-0.581427
-0.594135
-0.605613
-0.61578
-0.624557
-0.631858
-0.6376
-0.641697
-0.644071
-0.644653
-0.643385
-0.640227
-0.635152
-0.628149
-0.619231
-0.60843
-0.595804
-0.581434
-0.565423
-0.5479
-0.529012
-0.508927
-0.48783
-0.465916
-0.44339
-0.420457
-0.397324
-0.374189
-0.351238
-0.328643
-0.30656
-0.285123
-0.264444
-0.244614
-0.225705
-0.207765
-0.190827
-0.174904
-0.159997
-0.146092
-0.133167
-0.12119
-0.110123
-0.0999223
-0.0905426
-0.0819359
-0.0740527
-0.0668443
-0.0602618
-0.0542586
-0.0487881
-0.043808
-0.0392752
-0.0351521
-0.0313993
-0.0279852
-0.0248731
-0.0220379
-0.0194445
-0.017075
-0.014894
-0.012892
-0.0110303
-0.00931057
-0.00768596
-0.00617387
-0.00471253
-0.00334307
-0.00197829
-0.000698227
-0.397195
-0.419473
-0.441649
-0.462925
-0.482947
-0.501733
-0.519443
-0.536207
-0.552055
-0.566939
-0.58077
-0.593455
-0.604907
-0.615044
-0.623788
-0.631056
-0.636764
-0.640828
-0.643171
-0.643725
-0.642433
-0.639256
-0.634165
-0.627155
-0.618235
-0.607442
-0.594831
-0.580485
-0.564508
-0.547027
-0.528191
-0.508166
-0.487136
-0.465295
-0.442846
-0.419995
-0.396944
-0.37389
-0.351019
-0.328502
-0.30649
-0.285119
-0.264499
-0.244722
-0.225858
-0.207956
-0.191049
-0.17515
-0.160261
-0.146368
-0.13345
-0.121475
-0.110407
-0.100202
-0.0908147
-0.0821987
-0.0743044
-0.0670838
-0.0604882
-0.0544714
-0.0489871
-0.0439931
-0.0394465
-0.0353099
-0.0315441
-0.0281173
-0.0249931
-0.0221462
-0.0195418
-0.0171616
-0.0149707
-0.012959
-0.0110885
-0.00935967
-0.0077272
-0.00620654
-0.00473826
-0.0033603
-0.00198959
-0.000700822
-0.308308
-0.338247
-0.366509
-0.392772
-0.416749
-0.43857
-0.458892
-0.477828
-0.496525
-0.518111
-0.295252
-0.325008
-0.353493
-0.380468
-0.405867
-0.429592
-0.451441
-0.472169
-0.488751
-0.507388
-0.283882
-0.312922
-0.340589
-0.367054
-0.391781
-0.415399
-0.435609
-0.455232
-0.469343
-0.487665
-0.273526
-0.301657
-0.328007
-0.353499
-0.376392
-0.398712
-0.416769
-0.435747
-0.452069
-0.473252
-0.264185
-0.291431
-0.316475
-0.341065
-0.362501
-0.384084
-0.402301
-0.422648
-0.442134
-0.463201
-0.255957
-0.282397
-0.306475
-0.330457
-0.351532
-0.373345
-0.393105
-0.414127
-0.433487
-0.45207
-0.248805
-0.274531
-0.29806
-0.321662
-0.343041
-0.365001
-0.385287
-0.404979
-0.422711
-0.440133
-0.242601
-0.267704
-0.290961
-0.314165
-0.335688
-0.356994
-0.376584
-0.394828
-0.412155
-0.429945
-0.237249
-0.261772
-0.28481
-0.307447
-0.328691
-0.349048
-0.36803
-0.385997
-0.403824
-0.421807
-0.232654
-0.256609
-0.279354
-0.301356
-0.322196
-0.341983
-0.360914
-0.379128
-0.397089
-0.414588
-0.228692
-0.252107
-0.274509
-0.295989
-0.316546
-0.336141
-0.355122
-0.37329
-0.39086
-0.407774
-0.22527
-0.248207
-0.270276
-0.29139
-0.31175
-0.331201
-0.350009
-0.367847
-0.385008
-0.401612
-0.222341
-0.244872
-0.266638
-0.28747
-0.307613
-0.326832
-0.345349
-0.362894
-0.379857
-0.396339
-0.219875
-0.242058
-0.263541
-0.284114
-0.304005
-0.322973
-0.341251
-0.358642
-0.375522
-0.391901
-0.217838
-0.239715
-0.260929
-0.281258
-0.300908
-0.319671
-0.33779
-0.355092
-0.371891
-0.388156
-0.2162
-0.237805
-0.258771
-0.278881
-0.298324
-0.316929
-0.334923
-0.35214
-0.368852
-0.38503
-0.214938
-0.236302
-0.257046
-0.276965
-0.296234
-0.314704
-0.332584
-0.349722
-0.366371
-0.38251
-0.214039
-0.235193
-0.255738
-0.275486
-0.294597
-0.312946
-0.330726
-0.347806
-0.364432
-0.380587
-0.213507
-0.234493
-0.254858
-0.274441
-0.2934
-0.311631
-0.329319
-0.346351
-0.362974
-0.379185
-0.213348
-0.234253
-0.254495
-0.27395
-0.292781
-0.310909
-0.328505
-0.34548
-0.362071
-0.378316
0.105642
0.111828
0.113098
0.106401
0.0906172
0.0652867
0.0279634
-0.0272206
-0.10918
-0.209374
0.0594297
0.0611369
0.0533103
0.0378112
0.0146367
-0.0180061
-0.0639566
-0.12967
-0.222639
-0.33279
0.0208369
0.0138767
-0.00379925
-0.0275885
-0.0576453
-0.0970828
-0.150799
-0.22583
-0.328941
-0.439743