/*--------------------------------*- C++ -*----------------------------------*\
| =========                 |                                                 |
| \\      /  F ield         | OpenFOAM: The Open Source CFD Toolbox           |
|  \\    /   O peration     | Version:  4.1                                   |
|   \\  /    A nd           | Web:      www.OpenFOAM.org                      |
|    \\/     M anipulation  |                                                 |
\*---------------------------------------------------------------------------*/
FoamFile
{
    version     2.0;
    format      ascii;
    class       volScalarField;
    location    "15";
    object      p;
}
// * * * * * * * * * * * * * * * * * * * * * * * * * * * * * * * * * * * * * //

dimensions      [0 2 -2 0 0 0 0];

internalField   nonuniform List<scalar> 
2000
(
-0.155667
-0.145118
-0.135655
-0.126902
-0.118995
-0.111692
-0.104386
-0.0977673
-0.0898181
-0.0866356
-0.175022
-0.16073
-0.148832
-0.137919
-0.1277
-0.117921
-0.108335
-0.0991327
-0.089601
-0.0827981
-0.19835
-0.179732
-0.165131
-0.151508
-0.138007
-0.124687
-0.111698
-0.0992918
-0.0872406
-0.0765429
-0.225554
-0.202039
-0.184307
-0.166891
-0.148681
-0.130571
-0.113297
-0.0972265
-0.0820904
-0.0690804
-0.25555
-0.226866
-0.205177
-0.182263
-0.157726
-0.133775
-0.11166
-0.0916471
-0.0736421
-0.0580037
-0.286326
-0.252562
-0.225344
-0.194886
-0.162698
-0.132338
-0.105215
-0.0813705
-0.060465
-0.0422483
-0.314649
-0.276419
-0.241423
-0.20159
-0.161121
-0.124375
-0.0924803
-0.0650441
-0.0413902
-0.0205915
-0.336508
-0.294594
-0.249719
-0.199436
-0.150827
-0.108222
-0.0720642
-0.0414454
-0.015196
0.00803031
-0.347838
-0.302648
-0.246789
-0.186061
-0.130101
-0.0824926
-0.0427861
-0.00949941
0.0190199
0.0441996
-0.345113
-0.2966
-0.229743
-0.159746
-0.0977372
-0.0461954
-0.00377562
0.0315645
0.0618826
0.0883209
-0.0755666
-0.0794139
-0.0807623
-0.0813889
-0.0816167
-0.0813823
-0.0806564
-0.0794517
-0.0778483
-0.0760519
-0.0774912
-0.0810929
-0.0823003
-0.0828477
-0.083012
-0.0827098
-0.0818966
-0.0805553
-0.078729
-0.0767902
-0.0811943
-0.0842767
-0.0852216
-0.0855916
-0.0856075
-0.0851534
-0.0841537
-0.0825527
-0.0802615
-0.0777481
-0.086364
-0.0886971
-0.0892264
-0.0892904
-0.0890502
-0.0883442
-0.0870481
-0.0850956
-0.0821194
-0.0775262
-0.0926634
-0.0940499
-0.0939713
-0.093555
-0.0929184
-0.0918551
-0.0901476
-0.0876367
-0.0837634
-0.0780076
-0.099831
-0.100085
-0.0991513
-0.0980195
-0.0967963
-0.0952451
-0.0930524
-0.089956
-0.0852844
-0.0766565
-0.107798
-0.106696
-0.104611
-0.102469
-0.100391
-0.098157
-0.0953363
-0.0915444
-0.086899
-0.0745095
-0.116806
-0.113959
-0.110479
-0.106993
-0.103765
-0.100618
-0.0970184
-0.0923456
-0.0882052
-0.0734445
-0.12727
-0.12238
-0.117152
-0.112059
-0.107474
-0.103213
-0.0986723
-0.0932714
-0.0887003
-0.0748751
-0.139963
-0.132537
-0.125295
-0.118449
-0.112331
-0.106753
-0.101026
-0.0953195
-0.089166
-0.080374
-0.0742315
-0.0719445
-0.0693606
-0.0665277
-0.0634499
-0.0601402
-0.0566137
-0.0528868
-0.0489927
-0.0449526
-0.0407822
-0.0365051
-0.0321486
-0.0277424
-0.0233184
-0.0189095
-0.0145468
-0.0102484
-0.00601872
-0.00192695
-0.0753696
-0.0730028
-0.0703175
-0.067419
-0.0642819
-0.060912
-0.0573197
-0.05352
-0.0495784
-0.0454764
-0.0412353
-0.036881
-0.0324415
-0.0279486
-0.0234378
-0.0189475
-0.0145164
-0.0101688
-0.00591224
-0.0018506
-0.0774223
-0.0748319
-0.0720027
-0.0690059
-0.0657727
-0.0623033
-0.0586103
-0.0547437
-0.0506742
-0.0464406
-0.042065
-0.0375685
-0.0329788
-0.0283299
-0.0236622
-0.0190231
-0.0144644
-0.0100251
-0.00572035
-0.0017004
-0.0812842
-0.0766948
-0.0739625
-0.0709077
-0.067553
-0.0639433
-0.0601737
-0.0561963
-0.0519959
-0.047623
-0.043093
-0.0384269
-0.0336548
-0.0288144
-0.0239522
-0.0191254
-0.0144015
-0.00984367
-0.00548571
-0.0015038
-0.0823735
-0.0798294
-0.0761599
-0.0727453
-0.0693529
-0.0657753
-0.0618839
-0.0577338
-0.0533902
-0.0488635
-0.0441643
-0.0393163
-0.0343522
-0.0293137
-0.0242533
-0.0192369
-0.0143449
-0.00966846
-0.00528226
-0.00136151
-0.0841088
-0.0825432
-0.0781773
-0.0744455
-0.0710255
-0.0673391
-0.0633345
-0.0590802
-0.0546148
-0.0499487
-0.0450945
-0.040079
-0.0349397
-0.0297247
-0.0244925
-0.019319
-0.0142929
-0.00953036
-0.00514803
-0.0012755
-0.0847675
-0.0853642
-0.0802384
-0.0756038
-0.0720222
-0.0684292
-0.0644048
-0.0600485
-0.0554737
-0.0506979
-0.0457218
-0.0405733
-0.0352968
-0.0299499
-0.0245958
-0.0193233
-0.0142235
-0.00943324
-0.00508899
-0.00128692
-0.0851618
-0.0871518
-0.0816267
-0.0764093
-0.0727324
-0.0691262
-0.0650012
-0.0605321
-0.0558683
-0.0510097
-0.0459446
-0.0407077
-0.0353482
-0.0299338
-0.024525
-0.0192275
-0.0141213
-0.00936982
-0.00507855
-0.00138297
-0.0855925
-0.0871137
-0.0811693
-0.0760125
-0.0724318
-0.068742
-0.0645513
-0.0601115
-0.0555037
-0.0506842
-0.045643
-0.0404307
-0.0350964
-0.0297191
-0.0243495
-0.0191145
-0.0140656
-0.00940239
-0.00514713
-0.00153776
-0.0887425
-0.0864364
-0.0803986
-0.075889
-0.0720117
-0.0678183
-0.063432
-0.0590083
-0.0544697
-0.0497418
-0.0448155
-0.0397419
-0.0345518
-0.0293295
-0.0241067
-0.0190286
-0.0141081
-0.00957435
-0.00535283
-0.00174581
-0.0778223
-0.0752999
-0.0735377
-0.0711434
-0.0678753
-0.0641316
-0.0602148
-0.0561692
-0.0519282
-0.0474737
-0.042817
-0.0380191
-0.0331056
-0.0281704
-0.0232298
-0.0184372
-0.01377
-0.00946678
-0.00538061
-0.00185101
-0.0728983
-0.0709956
-0.0689079
-0.0661526
-0.0628835
-0.0594174
-0.0558567
-0.0521513
-0.0482406
-0.0441301
-0.039835
-0.0354152
-0.0308885
-0.0263456
-0.0217907
-0.0173706
-0.0130416
-0.00903317
-0.00516486
-0.00180277
-0.064095
-0.064315
-0.062448
-0.059601
-0.0566064
-0.0536701
-0.0506734
-0.0474842
-0.044046
-0.0403881
-0.0365395
-0.0325643
-0.0284781
-0.024367
-0.0202298
-0.0162017
-0.0122336
-0.00853141
-0.00492252
-0.0017317
-0.0535333
-0.0559488
-0.0549649
-0.0525123
-0.0499736
-0.0476264
-0.045248
-0.0426348
-0.0397193
-0.0365484
-0.0331683
-0.0296513
-0.0260135
-0.0223363
-0.0186158
-0.0149749
-0.0113662
-0.00796992
-0.00463356
-0.00162651
-0.0423093
-0.0463644
-0.0466405
-0.0450137
-0.0430992
-0.0413601
-0.0396053
-0.0375953
-0.035237
-0.0325809
-0.0296868
-0.0266382
-0.0234541
-0.0202134
-0.0169091
-0.0136557
-0.0104069
-0.00732673
-0.00427737
-0.00149859
-0.0305113
-0.0359668
-0.0376859
-0.0371379
-0.0359798
-0.0348793
-0.0337548
-0.0323693
-0.0306002
-0.0284885
-0.0261008
-0.0235334
-0.0208097
-0.0180103
-0.0151233
-0.0122619
-0.0093749
-0.00662563
-0.00387713
-0.00137017
-0.0183587
-0.0252343
-0.0283889
-0.028976
-0.0286495
-0.028231
-0.0277547
-0.0270093
-0.0258509
-0.0243065
-0.0224424
-0.0203677
-0.0181097
-0.0157556
-0.0132866
-0.0108213
-0.00829803
-0.00589203
-0.00345321
-0.0012466
-0.0063865
-0.0145198
-0.0189429
-0.0206236
-0.0211706
-0.0214817
-0.0216764
-0.0215799
-0.0210413
-0.0200767
-0.018748
-0.017174
-0.0153852
-0.0134778
-0.0114267
-0.00935877
-0.00720008
-0.00514313
-0.00301837
-0.00112476
0.00516232
-0.00398853
-0.0094957
-0.0122123
-0.0136573
-0.0147351
-0.0156165
-0.0161667
-0.0162436
-0.0158589
-0.0150689
-0.0139971
-0.0126769
-0.0112125
-0.00957566
-0.00790061
-0.00610447
-0.00439322
-0.00258317
-0.000999105
0.0161148
0.00624315
-0.000205854
-0.00391761
-0.00627346
-0.0081343
-0.00969973
-0.0108787
-0.0115518
-0.0117327
-0.0114728
-0.0108945
-0.0100343
-0.00900103
-0.00776893
-0.00647393
-0.00503363
-0.00365491
-0.0021561
-0.000863451
0.0262719
0.0159764
0.00874503
0.00407213
0.00080105
-0.00183617
-0.00406014
-0.00583201
-0.00706692
-0.00778447
-0.0080323
-0.00792649
-0.00750757
-0.00688391
-0.00603941
-0.00510331
-0.00400613
-0.00293867
-0.00174299
-0.000714294
0.0354557
0.0250391
0.0171716
0.0115748
0.00740611
0.00402415
0.00118752
-0.00112616
-0.00287535
-0.00408774
-0.00480839
-0.00514273
-0.00513661
-0.00489313
-0.00441152
-0.00380732
-0.0030343
-0.00225305
-0.00134745
-0.000554716
0.0435706
0.033259
0.0248804
0.0184436
0.0134352
0.00936327
0.00597239
0.0031759
0.000967939
-0.000689417
-0.00183889
-0.00257393
-0.00294488
-0.00304794
-0.00289869
-0.00259754
-0.00212414
-0.00160554
-0.000972019
-0.000395999
0.0506474
0.0405498
0.0317797
0.0246096
0.0188504
0.0141589
0.0102752
0.00705392
0.00444371
0.00239338
0.000862998
-0.000231219
-0.000940165
-0.00135607
-0.0015055
-0.00148034
-0.00127796
-0.00100367
-0.000619702
-0.000254859
0.0568125
0.0468997
0.0378288
0.0300595
0.0236629
0.0184297
0.014111
0.0105158
0.0075554
0.00516139
0.00329758
0.0018842
0.000876354
0.000178945
-0.000234768
-0.000461557
-0.000499304
-0.000455683
-0.000295362
-0.000146245
0.0621596
0.0523103
0.0430059
0.0347844
0.0278803
0.022189
0.0174896
0.0135648
0.0103011
0.00760916
0.00545785
0.00376398
0.00249581
0.00154715
0.000903594
0.000448393
0.000202512
2.95277e-05
-5.66912e-06
-7.53511e-05
0.0666469
0.0567362
0.0472566
0.038728
0.0314523
0.0253944
0.0203735
0.016165
0.0126447
0.00970153
0.00731012
0.00537735
0.00388959
0.0027234
0.00188614
0.00123058
0.000810028
0.000441833
0.000241468
-3.56102e-05
0.0701682
0.0601244
0.0505143
0.0417932
0.0342684
0.0279407
0.0226687
0.0182331
0.0145098
0.0113689
0.00879035
0.00666797
0.00500706
0.00366545
0.00267514
0.00185641
0.00129803
0.000768144
0.000436511
-1.6133e-05
0.0726884
0.0624919
0.052768
0.0439179
0.0362324
0.0297231
0.0242762
0.0196795
0.0158143
0.0125359
0.00982843
0.00757382
0.00579237
0.00432703
0.00322975
0.00229553
0.0016406
0.000995515
0.000570635
-7.89227e-06
0.0741638
0.0638517
0.0540189
0.0450725
0.0372886
0.0306758
0.0251298
0.020444
0.0165008
0.0131496
0.0103732
0.00804977
0.0062035
0.00467445
0.00351909
0.00252668
0.0018183
0.00111674
0.000638625
-2.27774e-07
0.109186
0.065331
0.0285955
-0.00128457
-0.0246104
-0.0422422
-0.055032
-0.06467
-0.0706894
-0.0828072
0.126484
0.0841178
0.0482549
0.0183448
-0.00565155
-0.0251137
-0.0395229
-0.0530445
-0.0604944
-0.0751715
0.142685
0.102093
0.0675072
0.0378564
0.0135988
-0.00765698
-0.0235642
-0.04012
-0.0484075
-0.0627952
0.157676
0.118707
0.0852427
0.0557259
0.031316
0.00883739
-0.00779567
-0.0253316
-0.0343042
-0.0490489
0.171469
0.13386
0.101309
0.0719158
0.0475349
0.0245935
0.00773947
-0.0100757
-0.0204188
-0.0360322
0.184139
0.147706
0.115986
0.0868698
0.0627211
0.0397468
0.0226004
0.00436035
-0.00729098
-0.0232888
0.195731
0.160361
0.129451
0.100755
0.0769051
0.0539982
0.036487
0.0179756
0.00569137
-0.0102083
0.206245
0.171845
0.141705
0.11349
0.0899227
0.0671595
0.0494757
0.0310841
0.0185519
0.00289432
0.215655
0.182129
0.152683
0.124972
0.101691
0.0792204
0.0615721
0.0435276
0.0307403
0.0154668
0.223962
0.191226
0.162374
0.135186
0.112199
0.0901464
0.0725718
0.0549295
0.0418345
0.0271289
0.231161
0.19918
0.170827
0.144177
0.121462
0.09987
0.0823114
0.0650754
0.0517153
0.0376227
0.237318
0.206022
0.178124
0.152018
0.129541
0.108389
0.0908184
0.0739467
0.0604166
0.0467799
0.242517
0.211855
0.184398
0.158815
0.136568
0.115792
0.0982507
0.0816308
0.0680406
0.0546003
0.246908
0.216831
0.189811
0.164694
0.142701
0.122216
0.104778
0.0882786
0.0747305
0.0612876
0.250623
0.221081
0.194488
0.16977
0.148051
0.127792
0.110506
0.0940679
0.0806093
0.067151
0.253751
0.224693
0.19849
0.174125
0.152665
0.132618
0.115468
0.0991388
0.0857282
0.0723992
0.256316
0.227696
0.20182
0.177789
0.156531
0.136729
0.119649
0.103528
0.0900671
0.0770015
0.258253
0.230039
0.204426
0.180729
0.15961
0.140093
0.123018
0.107164
0.0935699
0.0807706
0.259423
0.231585
0.206194
0.182823
0.16182
0.142593
0.125514
0.109915
0.0961788
0.0835572
0.259764
0.232174
0.206935
0.183813
0.16292
0.143923
0.126876
0.111469
0.0976727
0.0851579
0.76289
0.764069
0.756947
0.743208
0.72424
0.699675
0.666913
0.622272
0.567038
0.535417
0.707525
0.704364
0.688481
0.667531
0.642826
0.612138
0.571852
0.518046
0.452059
0.412296
0.64548
0.636319
0.613683
0.587135
0.557152
0.520336
0.472619
0.410039
0.333904
0.286527
0.57296
0.55932
0.532859
0.502603
0.468253
0.42592
0.371497
0.301192
0.216025
0.162345
0.495409
0.478221
0.449199
0.416172
0.378163
0.3311
0.271061
0.194705
0.102034
0.0442788
0.417401
0.396876
0.365874
0.330664
0.289643
0.238675
0.174046
0.0935421
-0.00447334
-0.0622187
0.341372
0.317806
0.285447
0.248719
0.205443
0.151567
0.0834391
-0.00082686
-0.0958533
-0.154545
0.268966
0.24302
0.210078
0.172647
0.12803
0.0725495
0.00277659
-0.0817235
-0.172244
-0.230268
0.201773
0.174411
0.141747
0.104462
0.0595162
0.00384244
-0.0652313
-0.147327
-0.232015
-0.287527
0.140825
0.113719
0.0820671
0.0453663
0.00116881
-0.0531048
-0.119534
-0.196785
-0.273533
-0.325604
1.06434
1.07308
1.08326
1.09494
1.10812
1.12266
1.1381
1.15304
1.16653
1.18492
1.0612
1.06929
1.07899
1.09012
1.10261
1.11631
1.13071
1.14439
1.15643
1.17398
1.0546
1.06138
1.07011
1.08018
1.09131
1.10332
1.11565
1.12681
1.13607
1.15175
1.04394
1.04873
1.05604
1.06454
1.07368
1.0832
1.09247
1.0999
1.10506
1.11785
1.02841
1.03054
1.036
1.04249
1.04903
1.05532
1.0606
1.06314
1.06287
1.07179
1.00706
1.00584
1.00906
1.01314
1.01658
1.01896
1.01939
1.01598
1.00901
1.01308
0.978993
0.973783
0.974544
0.975936
0.975767
0.973574
0.968367
0.958025
0.943165
0.941415
0.942456
0.932832
0.93134
0.930054
0.925962
0.918697
0.907216
0.889118
0.865287
0.856882
0.897023
0.883307
0.88023
0.875921
0.867244
0.854352
0.836059
0.809525
0.775801
0.760072
0.836695
0.824347
0.821457
0.813686
0.799926
0.781098
0.755608
0.720117
0.675782
0.652268
1.00028
1.00113
1.00258
1.00421
1.00584
1.00749
1.00922
1.01109
1.01312
1.01534
1.01776
1.02043
1.02338
1.02667
1.03035
1.03448
1.03912
1.04435
1.05023
1.05687
1.00027
1.00113
1.00255
1.00413
1.00572
1.00732
1.00901
1.01082
1.01279
1.01494
1.01728
1.01986
1.02271
1.02588
1.02941
1.03336
1.03778
1.04275
1.04831
1.05455
1.00029
1.00112
1.00245
1.00395
1.00544
1.00695
1.00854
1.01025
1.01209
1.01409
1.01627
1.01865
1.02128
1.02418
1.0274
1.03097
1.03494
1.03935
1.04421
1.04961
1.0003
1.00109
1.00228
1.00363
1.00498
1.00635
1.00778
1.00931
1.01095
1.0127
1.0146
1.01667
1.01893
1.0214
1.0241
1.02705
1.03026
1.03376
1.03747
1.04148
1.0003
1.001
1.002
1.00314
1.00429
1.00544
1.00663
1.00789
1.00924
1.01065
1.01214
1.01374
1.01545
1.01728
1.01921
1.02124
1.02333
1.02547
1.02746
1.0294
1.00027
1.00085
1.00159
1.00245
1.00332
1.00419
1.00506
1.00597
1.00686
1.00778
1.00872
1.00968
1.01063
1.01155
1.0124
1.01313
1.01366
1.0139
1.0135
1.01249
1.0002
1.0006
1.00104
1.00153
1.00203
1.0025
1.00297
1.00336
1.0037
1.00398
1.0042
1.0043
1.00423
1.00394
1.00334
1.0023
1.0007
0.998353
0.99485
0.990024
1.00007
1.00021
1.00029
1.00036
1.00041
1.0004
1.00027
1.00004
0.999697
0.999191
0.998481
0.99749
0.99615
0.994321
0.991908
0.988642
0.984365
0.978576
0.970862
0.96038
0.999859
0.999611
0.999306
0.998935
0.998449
0.997814
0.99702
0.996049
0.994865
0.993385
0.991547
0.989212
0.986302
0.982554
0.977905
0.971808
0.964316
0.954202
0.941669
0.923717
0.999692
0.998923
0.998192
0.99736
0.996243
0.994836
0.993207
0.991334
0.98914
0.986472
0.983244
0.979218
0.974317
0.968032
0.960392
0.950197
0.938022
0.920891
0.901484
0.872408
0.999553
0.998428
0.997383
0.996047
0.994179
0.991881
0.989329
0.986487
0.983222
0.979288
0.974583
0.968768
0.961788
0.952917
0.942257
0.928134
0.911288
0.887141
0.858015
0.809234
0.999434
0.998355
0.997044
0.994967
0.992103
0.988831
0.985415
0.981711
0.977494
0.972433
0.966464
0.959172
0.950583
0.939777
0.927049
0.910393
0.89097
0.864272
0.834148
0.792182
1.00037
0.999859
0.99804
0.994482
0.99001
0.985552
0.981323
0.976845
0.97172
0.965561
0.958402
0.949765
0.939775
0.927349
0.913011
0.894588
0.873772
0.846234
0.816718
0.77676
1.00011
1.00247
1.00103
0.994963
0.987906
0.981962
0.977003
0.971838
0.965809
0.958526
0.950192
0.940274
0.929003
0.915139
0.899464
0.87965
0.857914
0.829681
0.800473
0.761078
1.00094
1.00599
1.00367
0.994141
0.984378
0.977347
0.972077
0.966424
0.959542
0.951162
0.94172
0.930625
0.918212
0.903093
0.886316
0.865392
0.842979
0.814232
0.785297
0.746742
1.00141
1.00906
1.00562
0.991392
0.979067
0.971814
0.966668
0.960559
0.952782
0.943355
0.932917
0.920775
0.907343
0.891138
0.873428
0.851653
0.828731
0.799803
0.771197
0.733838
0.993791
0.993275
0.9891
0.979545
0.971058
0.965992
0.961254
0.954291
0.945409
0.935026
0.923763
0.910738
0.896385
0.87925
0.860723
0.838351
0.815032
0.786257
0.757934
0.722009
0.999429
0.973186
0.949526
0.947342
0.955339
0.959286
0.955904
0.947545
0.937335
0.926173
0.914312
0.900603
0.885431
0.867534
0.848286
0.825553
0.801908
0.773545
0.745398
0.711012
0.991809
0.946207
0.916395
0.925741
0.945858
0.955355
0.952069
0.941901
0.930166
0.918093
0.90551
0.891077
0.875059
0.856485
0.836554
0.813616
0.789661
0.761836
0.733749
0.700831
0.990752
0.939872
0.908474
0.920279
0.943028
0.952982
0.948515
0.936905
0.924009
0.91105
0.897594
0.882361
0.865499
0.846352
0.825823
0.802786
0.778561
0.75129
0.723214
0.691553
0.996167
0.960988
0.937462
0.942349
0.952927
0.954212
0.945927
0.933131
0.919528
0.905654
0.891068
0.874855
0.857127
0.837466
0.816439
0.793335
0.7689
0.742078
0.714038
0.683337
0.986189
0.989352
0.999116
0.99332
0.978344
0.961828
0.946471
0.931976
0.917618
0.90256
0.886518
0.869078
0.850426
0.830221
0.808767
0.785528
0.760944
0.734358
0.706424
0.67631
1.00144
1.02798
1.04337
1.02586
0.994336
0.966412
0.946268
0.930635
0.915843
0.899921
0.882728
0.86426
0.844902
0.824255
0.80255
0.779145
0.754544
0.727984
0.700294
0.670359
1.00988
1.04595
1.06132
1.03869
1.00066
0.967818
0.945491
0.929315
0.914272
0.897715
0.879665
0.86038
0.840506
0.819482
0.797636
0.774025
0.749498
0.722811
0.695471
0.665427
1.01275
1.05483
1.07104
1.04379
1.00094
0.965727
0.943173
0.927382
0.912477
0.895546
0.876912
0.857038
0.836796
0.81546
0.7935
0.769708
0.745266
0.718495
0.691498
0.661463
1.00872
1.06015
1.087
1.0546
1.00155
0.960909
0.937673
0.923153
0.909045
0.892227
0.873531
0.85355
0.833171
0.811662
0.789577
0.765726
0.741327
0.714702
0.687936
0.658328
0.970388
0.982698
1.02044
1.02109
0.996245
0.966099
0.94146
0.922291
0.905332
0.888017
0.869785
0.850287
0.829994
0.808404
0.78612
0.762296
0.737861
0.711557
0.68488
0.655929
1.00326
0.929975
0.865825
0.882048
0.924274
0.945583
0.939516
0.920097
0.899872
0.881901
0.864832
0.8466
0.826853
0.805454
0.783093
0.759408
0.734973
0.709051
0.682443
0.654054
1.00968
0.932328
0.852038
0.859724
0.905783
0.933364
0.932497
0.916676
0.897803
0.879869
0.862543
0.844303
0.82464
0.803421
0.781073
0.757519
0.73307
0.707411
0.68086
0.652865
0.96602
0.984458
1.03008
1.01743
0.975077
0.942212
0.924935
0.912881
0.898876
0.881873
0.8632
0.843742
0.823617
0.802451
0.780155
0.756666
0.732165
0.706626
0.680096
0.652377
0.756765
0.697119
0.63629
0.568604
0.495488
0.421947
0.350584
0.282363
0.218544
0.16033
0.750823
0.688442
0.624303
0.55962
0.490649
0.42059
0.353056
0.28895
0.229237
0.174922
0.738841
0.678679
0.613223
0.550875
0.486704
0.420608
0.356529
0.296077
0.240056
0.188754
0.726193
0.669915
0.604565
0.543043
0.48269
0.420659
0.35991
0.302665
0.249893
0.201379
0.713982
0.661199
0.596987
0.53594
0.478574
0.420664
0.363401
0.309062
0.259107
0.213056
0.702352
0.652535
0.590238
0.529943
0.474875
0.420749
0.367015
0.315398
0.267855
0.223897
0.691171
0.643891
0.584048
0.525019
0.471845
0.420984
0.370641
0.321619
0.276155
0.233932
0.680322
0.635277
0.578353
0.521183
0.469721
0.421527
0.37421
0.327608
0.283953
0.243158
0.669905
0.62682
0.57315
0.518377
0.468568
0.422439
0.37761
0.333165
0.29111
0.251521
0.660182
0.618778
0.568462
0.516446
0.468276
0.423677
0.380726
0.338103
0.297446
0.258967
0.65158
0.611592
0.564393
0.515171
0.468584
0.425095
0.383464
0.342306
0.302816
0.265214
0.644488
0.605714
0.561068
0.51429
0.469131
0.426469
0.385748
0.345753
0.307329
0.270674
0.638935
0.601261
0.558463
0.513528
0.469551
0.42757
0.387535
0.348489
0.311038
0.275267
0.634746
0.598046
0.556436
0.512696
0.469621
0.42826
0.388831
0.3506
0.314024
0.279072
0.631503
0.595523
0.554645
0.511664
0.469286
0.42853
0.389699
0.352201
0.316412
0.282212
0.6287
0.593112
0.552809
0.510477
0.468725
0.428551
0.39029
0.353444
0.318338
0.284805
0.626126
0.590672
0.550964
0.509343
0.468193
0.428527
0.390734
0.354423
0.319875
0.286911
0.62386
0.588396
0.549229
0.508285
0.467653
0.428372
0.39092
0.355036
0.32094
0.288469
0.622394
0.586827
0.547949
0.507395
0.467031
0.427934
0.390667
0.355093
0.321356
0.28932
0.621828
0.586229
0.547446
0.506969
0.466579
0.42743
0.390151
0.354695
0.321138
0.289382
)
;

boundaryField
{
    bottom
    {
        type            symmetryPlane;
    }
    right
    {
        type            fixedValue;
        value           uniform 0;
    }
    top
    {
        type            symmetryPlane;
    }
    left
    {
        type            fixedValue;
        value           uniform 1;
    }
    cylinder
    {
        type            zeroGradient;
    }
    defaultFaces
    {
        type            empty;
    }
}


// ************************************************************************* //
