/*--------------------------------*- C++ -*----------------------------------*\
| =========                 |                                                 |
| \\      /  F ield         | OpenFOAM: The Open Source CFD Toolbox           |
|  \\    /   O peration     | Version:  4.1                                   |
|   \\  /    A nd           | Web:      www.OpenFOAM.org                      |
|    \\/     M anipulation  |                                                 |
\*---------------------------------------------------------------------------*/
FoamFile
{
    version     2.0;
    format      ascii;
    class       surfaceScalarField;
    location    "15";
    object      phi;
}
// * * * * * * * * * * * * * * * * * * * * * * * * * * * * * * * * * * * * * //

dimensions      [0 3 -1 0 0 0 0];

internalField   nonuniform List<scalar> 
3890
(
0.000387734
0.000883716
-0.00127145
0.00183951
-0.000509778
-0.000941997
0.00452665
-0.00382357
0.00113642
0.00853199
-0.00834801
0.00434268
0.0138537
-0.0135949
0.00827315
0.0204078
-0.0191768
0.0126227
0.0280474
-0.0247803
0.0171408
0.0366099
-0.0301611
0.0215985
0.0460386
-0.0351603
0.0257315
-0.0397075
0.0291816
0.0565645
0.000559455
0.00032426
0.00250227
-0.00245259
0.0059658
-0.0072871
0.0109611
-0.0133433
0.0173704
-0.0200042
0.024961
-0.0267675
0.0334237
-0.0332431
0.0424238
-0.0391612
0.0516414
-0.0443778
-0.0488152
0.0607491
0.000763895
-0.000439635
0.00325129
-0.00493998
0.00751926
-0.0115551
0.0134472
-0.0192712
0.0207425
-0.0272995
0.0289897
-0.0350147
0.0377271
-0.0419804
0.0465166
-0.0479507
0.0549826
-0.0528438
-0.056668
0.0628354
0.000998659
-0.00143829
0.00406096
-0.00800229
0.00910057
-0.0165947
0.0157991
-0.0259697
0.0236482
-0.0351486
0.0320586
-0.0434252
0.0404762
-0.0503979
0.0484595
-0.0559341
0.0557088
-0.060093
-0.0630344
0.0620751
0.00125534
-0.00269364
0.00488492
-0.0116319
0.0105851
-0.0222948
0.0177849
-0.0331695
0.025761
-0.0431246
0.0338127
-0.051477
0.0413943
-0.0579795
0.0481658
-0.0627056
0.0539821
-0.0659094
-0.0679032
0.058851
0.00151985
-0.00421349
0.00566032
-0.0157723
0.0118292
-0.0284637
0.0191828
-0.0405231
0.0268367
-0.0507785
0.0340811
-0.0587214
0.040479
-0.0643774
0.0458554
-0.068082
0.0502288
-0.0702827
-0.0714015
0.0537271
0.00177382
-0.00598731
0.00631677
-0.0203153
0.0126989
-0.0348458
0.0198341
-0.0476583
0.026776
-0.0577205
0.0329123
-0.0648576
0.0379807
-0.0694459
0.0419818
-0.072083
0.0450638
-0.0733648
-0.0737643
0.0474266
0.00199665
-0.00798395
0.00678754
-0.0251062
0.0130962
-0.0411545
0.0196752
-0.0542373
0.0256292
-0.0636745
0.030519
-0.0697474
0.0342722
-0.0731991
0.0370309
-0.0748417
0.0390184
-0.0753522
-0.0751992
0.0404533
0.00216796
-0.0101519
0.00702058
-0.0299588
0.0129764
-0.0471103
0.0187381
-0.059999
0.0235551
-0.0684915
0.0271909
-0.0733833
0.0297374
-0.0757455
0.0314275
-0.0765319
0.0325096
-0.0764344
-0.0758777
0.0331881
0.00227016
-0.0124221
0.00698634
-0.034675
0.0123496
-0.0524735
0.0171255
-0.0647749
0.0207634
-0.0721294
0.023219
-0.0758389
0.0247025
-0.077229
0.0254889
-0.0773183
0.0258164
-0.0767618
0.0258575
-0.0759188
-0.000379004
0.000379004
-0.00115667
0.000777666
-0.00212926
0.000972586
-0.00317933
0.00105008
-0.00424044
0.00106111
-0.00528097
0.00104052
-0.00629422
0.00101325
-0.00729087
0.000996656
-0.00829374
0.00100287
0.00104021
-0.00933395
-0.000358036
0.000737039
-0.00108212
0.00150175
-0.00197823
0.0018687
-0.00292808
0.00199992
-0.00386285
0.00199587
-0.00474801
0.00192568
-0.00557393
0.00183917
-0.00634974
0.00177246
-0.00709942
0.00175255
0.00179999
-0.0078592
-0.000315723
0.00105276
-0.000942119
0.00212815
-0.00169178
0.00261836
-0.00244798
0.00275612
-0.00313882
0.00268672
-0.00372396
0.00251082
-0.00418746
0.00230267
-0.00453469
0.00211969
-0.00479127
0.00200913
0.00201179
-0.00500307
-0.000259693
0.00131245
-0.000749574
0.00261803
-0.00129229
0.00316108
-0.00177295
0.00323677
-0.00211597
0.00302974
-0.00227313
0.00266798
-0.00221874
0.00224828
-0.00195046
0.0018514
-0.00149545
0.00155412
0.00143851
-0.000922165
-0.00019492
0.00150737
-0.000517722
0.00294083
-0.000801233
0.00344459
-0.000933151
0.00336869
-0.000834681
0.00293127
-0.0004492
0.0022825
0.000261344
0.00153774
0.00131234
0.000800399
0.00268226
0.000184206
-0.000160038
0.00428081
-0.000124769
0.00163214
-0.000253915
0.00306997
-0.000227998
0.00341867
6.24726e-05
0.00307822
0.00069807
0.00229567
0.00174162
0.00123895
0.0032423
3.70555e-05
0.00523091
-0.00118822
0.00770077
-0.00228565
-0.0030068
0.0105475
-4.97578e-05
0.0016819
4.38262e-05
0.00297639
0.000436163
0.00302633
0.00123587
0.00227851
0.00252333
0.00100821
0.00436195
-0.000599663
0.00680381
-0.0024048
0.00988819
-0.0042726
0.0136255
-0.00602297
-0.00730414
0.0179229
3.39784e-05
0.00164792
0.000385938
0.00262443
0.00121628
0.00219599
0.0026341
0.000860687
0.00471747
-0.00107516
0.00752108
-0.00340328
0.011082
-0.00596576
0.0154246
-0.0086152
0.0205586
-0.0111569
-0.013181
0.0264354
0.000130214
0.00151771
0.000789097
0.00196554
0.00214467
0.000840412
0.00430891
-0.00130355
0.00735317
-0.00411942
0.0113103
-0.00736037
0.0161768
-0.0108323
0.0219213
-0.0143597
0.0285001
-0.0177357
-0.0205904
0.0359095
0.000246257
0.0012698
0.00324664
0.00628576
0.0104395
0.0157019
0.0220103
0.0292492
0.037245
0.0458362
-0.00994799
0.00061403
-0.0105549
0.00060687
-0.0111284
0.000573592
-0.0116574
0.000528933
-0.012135
0.000477662
-0.0125565
0.000421458
-0.0129183
0.000361774
-0.0132183
0.000299981
-0.0134556
0.000237301
-0.0136304
0.000174852
-0.0137441
0.000113696
-0.0137988
5.47344e-05
-0.0137951
-3.74699e-06
-0.0137446
-5.04433e-05
-0.0136494
-9.52868e-05
-0.0135149
-0.000134499
-0.0133478
-0.000167049
-0.0131555
-0.000192312
-0.0129448
-0.000210671
-0.000221064
-0.0084128
0.00116763
-0.0089655
0.00115957
-0.0094886
0.00109669
-0.00997143
0.00101176
-0.0104078
0.000914054
-0.0107927
0.00080631
-0.0111223
0.000691352
-0.0113943
0.000572037
-0.0116079
0.00045088
-0.0117632
0.000330132
-0.0118613
0.000211867
-0.0119044
9.77519e-05
-0.0118948
-1.32853e-05
-0.0118408
-0.000104475
-0.0117454
-0.000190658
-0.0116141
-0.000265829
-0.011453
-0.000328091
-0.0112692
-0.00037617
-0.0110696
-0.000410259
-0.000428512
-0.00544302
0.00160758
-0.0058921
0.00160865
-0.00631698
0.00152157
-0.00670833
0.00140312
-0.00706123
0.00126696
-0.00737065
0.00111573
-0.00763263
0.000953333
-0.00784491
0.000784315
-0.00800662
0.000612589
-0.00811801
0.000441524
-0.00818019
0.000274052
-0.00819446
0.000112022
-0.00816728
-4.04736e-05
-0.008101
-0.000170748
-0.00800029
-0.000291375
-0.00787008
-0.000396041
-0.00771606
-0.00048212
-0.00754451
-0.000547723
-0.00736161
-0.00059316
-0.00061765
-0.00119242
0.00187782
-0.00149987
0.0019161
-0.00178747
0.00180917
-0.00204533
0.00166097
-0.00227269
0.00149432
-0.00246576
0.0013088
-0.00262089
0.00110846
-0.00273642
0.000899849
-0.00281214
0.000688308
-0.00284879
0.000478175
-0.00284764
0.000272903
-0.00280808
7.2462e-05
-0.00274333
-0.000105219
-0.00264855
-0.000265528
-0.00252926
-0.000410665
-0.00238993
-0.000535369
-0.00223542
-0.000636633
-0.00207111
-0.000712036
-0.00190245
-0.00076182
-0.000787211
0.00419074
0.0019679
0.0040466
0.00206024
0.00392604
0.00192973
0.00383687
0.00175014
0.00377311
0.00155807
0.00373587
0.00134604
0.00372734
0.00111699
0.00374727
0.000879923
0.0037943
0.000641273
0.00386693
0.000405547
0.00396435
0.000175482
0.00408329
-4.64773e-05
0.00421166
-0.000233587
0.00435743
-0.000411301
0.00451517
-0.000568399
0.00468118
-0.000701383
0.00485174
-0.000807193
0.00502267
-0.000882972
0.00518957
-0.000928716
-0.000949375
0.0106326
0.00188279
0.0106521
0.00204081
0.0107139
0.00186792
0.0108177
0.00164634
0.0109463
0.00142942
0.0110966
0.00119582
0.0112672
0.000946352
0.0114546
0.000692493
0.0116559
0.000440001
0.0118668
0.000194648
0.0120917
-4.94664e-05
0.0123001
-0.000254803
0.012519
-0.000452485
0.0127381
-0.000630434
0.012955
-0.000785307
0.0131675
-0.000913885
0.0133734
-0.00101306
0.0135702
-0.00107978
0.0137547
-0.00111324
-0.00112108
0.0181229
0.0016827
0.0182941
0.00186964
0.0185495
0.00161257
0.0188604
0.00133543
0.0191964
0.00109339
0.0195502
0.000842025
0.0199166
0.00057999
0.0202813
0.000327771
0.0206547
6.65531e-05
0.02101
-0.000160623
0.0213403
-0.000379792
0.0216693
-0.000583793
0.0219863
-0.00076946
0.0222898
-0.000933981
0.0225789
-0.00107441
0.0228528
-0.00118776
0.023111
-0.00127128
0.0233532
-0.00132196
0.0235783
-0.00133832
-0.00132651
0.0266544
0.00146377
0.0269885
0.00153549
0.0274644
0.00113671
0.0279866
0.000813214
0.0285197
0.000560266
0.0290551
0.00030667
0.0296076
2.74377e-05
0.0301246
-0.00018922
0.0306046
-0.00041344
0.0310705
-0.000626549
0.0315164
-0.000825714
0.0319419
-0.00100925
0.0323465
-0.0011741
0.0327303
-0.00131771
0.0330934
-0.00143753
0.0334364
-0.00153082
0.0337605
-0.0015953
0.0340665
-0.001628
0.0343568
-0.00162866
-0.00159553
0.0361047
0.00126859
0.0367323
0.000907936
0.0374639
0.000405045
0.0381645
0.00011264
0.0388374
-0.000112633
0.0394744
-0.000330287
0.0400567
-0.000554886
0.0406286
-0.000761098
0.0411747
-0.000959584
0.0416986
-0.0011504
0.0422027
-0.00132989
0.0426883
-0.00149479
0.0431564
-0.00164224
0.0436082
-0.00176945
0.0440444
-0.00187375
0.0444658
-0.00195225
0.0448738
-0.0020033
0.0452691
-0.00202325
0.0456567
-0.0020163
-0.00196782
0.0466708
0.000434033
0.0476809
-0.000102151
0.0484165
-0.0003306
0.0490158
-0.000486647
0.0495734
-0.000670269
0.0501097
-0.000866545
0.0506232
-0.00106841
0.0511319
-0.00126984
0.0516408
-0.00146847
0.0521516
-0.0016612
0.0526657
-0.00184398
0.0531838
-0.0020129
0.0537061
-0.00216449
0.054232
-0.00229538
0.0547611
-0.00240286
0.0552925
-0.00248366
0.0558264
-0.00253718
0.056361
-0.00255783
0.0569006
-0.00255591
-0.0025014
0.0688775
0.00169
-0.0701335
0.0677081
0.0010673
0.0668287
0.00054884
0.0661702
0.000171765
0.0656503
-0.000150317
0.0652272
-0.00044344
0.0648705
-0.000711733
0.0645609
-0.000960279
0.0642842
-0.00119175
0.06403
-0.00140694
0.0637909
-0.00160495
0.0635621
-0.00178408
0.0633401
-0.0019425
0.0631228
-0.00207809
0.0629094
-0.0021894
0.0626995
-0.00227374
0.0624944
-0.00233211
0.0622944
-0.00235783
0.0621032
-0.00236473
-0.00231571
0.0802086
0.00240603
-0.0809246
0.0792467
0.0020292
0.0782805
0.00151503
0.0774206
0.00103162
0.0766614
0.000608922
0.0759861
0.000231818
0.0753838
-0.000109355
0.074843
-0.000419546
0.0743518
-0.000700531
0.0738997
-0.000954799
0.0734782
-0.00118344
0.0730807
-0.00138664
0.0727024
-0.0015642
0.0723396
-0.00171531
0.0719901
-0.00183982
0.0716522
-0.00193588
0.0713258
-0.0020057
0.0710109
-0.0020429
0.070708
-0.00206188
-0.00203034
0.0884826
0.00319738
-0.0892739
0.0877026
0.00280922
0.0869043
0.00231333
0.0861338
0.00180208
0.0854054
0.00133733
0.0847183
0.000918977
0.0840718
0.000537089
0.0834641
0.000188124
0.0828922
-0.000128602
0.0823517
-0.000414241
0.0818382
-0.000669959
0.081348
-0.000896439
0.0808779
-0.00109413
0.0804255
-0.00126287
0.0799888
-0.0014032
0.079567
-0.00151402
0.0791591
-0.0015978
0.0787662
-0.00165005
0.0783861
-0.00168171
-0.00167238
0.094322
0.00393331
-0.0950579
0.0936816
0.00344957
0.0930522
0.00294279
0.0924277
0.00242652
0.091818
0.00194702
0.0912249
0.00151212
0.0906478
0.00111417
0.090087
0.000748972
0.0895425
0.000415824
0.089014
0.000114355
0.0885003
-0.00015632
0.0880007
-0.000396782
0.0875141
-0.000607611
0.0870402
-0.000788906
0.0865782
-0.000941274
0.0861286
-0.00106439
0.0856907
-0.00115987
0.0852669
-0.0012263
0.0848535
-0.0012683
-0.00128023
0.0980139
0.00448186
-0.0985624
0.0975381
0.00392532
0.0970792
0.00340175
0.096616
0.00288971
0.0961518
0.0024112
0.0956894
0.00197453
0.0952284
0.00157516
0.0947687
0.00120872
0.0943108
0.000873734
0.0938554
0.000569695
0.0934032
0.000295927
0.0929545
5.18607e-05
0.0925101
-0.000163218
0.0920707
-0.000349476
0.0916368
-0.000507386
0.0912098
-0.000637409
0.0907897
-0.000739696
0.0903796
-0.000816244
0.0899761
-0.000864799
-0.000893222
0.099948
0.00480292
-0.100269
0.0996586
0.00421472
0.0993751
0.00368527
0.099078
0.00318672
0.0987672
0.00272207
0.0984459
0.00229577
0.0981154
0.00190568
0.0977759
0.00154824
0.0974282
0.00122148
0.0970733
0.000924509
0.0967126
0.000656626
0.0963474
0.000417133
0.0959787
0.000205489
0.095608
2.12041e-05
0.0952366
-0.000135979
0.0948663
-0.000267165
0.0944977
-0.000371092
0.0941341
-0.000452607
0.0937732
-0.000503905
-0.000542461
0.100604
0.00490746
-0.100708
0.100495
0.0043236
0.100375
0.00380478
0.100233
0.0033288
0.100068
0.00288773
0.0998818
0.0024815
0.0996784
0.0021091
0.0994585
0.00176813
0.0992233
0.00145663
0.0989744
0.0011734
0.0987134
0.000917679
0.0984418
0.00068871
0.0981613
0.000486037
0.0978736
0.000308878
0.0975802
0.000157394
0.0972833
2.97758e-05
0.0969838
-7.15968e-05
0.0966845
-0.000153357
0.096385
-0.00020436
-0.000247056
0.10044
0.00483364
-0.100366
0.100483
0.00428039
0.100501
0.00378697
0.100489
0.0033405
0.100448
0.00292909
0.10038
0.00254933
0.100289
0.00220046
0.100176
0.00188106
0.100043
0.00158944
0.0998922
0.00132432
0.099725
0.00108486
0.0995434
0.000870301
0.0993492
0.00068024
0.0991443
0.000513781
0.0989304
0.000371286
0.0987096
0.00025061
0.0984833
0.000154722
0.0982536
7.63015e-05
0.0980216
2.76678e-05
-1.4601e-05
0.0998205
0.00462942
-0.0996163
0.0999793
0.0041216
0.100103
0.00366361
0.100192
0.00325116
0.100249
0.00287254
0.100275
0.00252271
0.100275
0.00220077
0.10025
0.00190591
0.100203
0.00163684
0.100135
0.0013923
0.100048
0.00117147
0.0999448
0.000973568
0.0998268
0.000798252
0.0996959
0.000644608
0.0995542
0.000513059
0.0994033
0.000401438
0.0992453
0.000312782
0.0990815
0.000240024
0.0989142
0.000194994
0.000156044
0.0989943
0.00433728
-0.0987021
0.0992352
0.00388067
0.0994351
0.00346367
0.0995985
0.00308781
0.0997277
0.00274334
0.0998255
0.00242493
0.0998947
0.00213152
0.099938
0.00186266
0.0999574
0.00161738
0.0999551
0.00139459
0.0999331
0.00119347
0.0998934
0.00101329
0.0998379
0.000853734
0.0997686
0.000713935
0.0996874
0.000594292
0.099596
0.00049281
0.0994965
0.00041226
0.0993902
0.000346392
0.0992796
0.000305575
0.000271383
0.098113
0.00398794
-0.0977637
0.0984103
0.00358338
0.0986642
0.00320978
0.0988802
0.0028718
0.0990616
0.00256197
0.0992111
0.00227544
0.0993314
0.00201115
0.0994253
0.00176883
0.0994948
0.00154779
0.0995423
0.00134711
0.0995697
0.00116604
0.0995791
0.00100392
0.0995724
0.000860446
0.0995515
0.000734831
0.0995184
0.000627407
0.0994748
0.00053645
0.0994227
0.000464299
0.0993633
0.00040576
0.0992996
0.000369355
0.000340304
0.0972589
0.00360131
-0.0968723
0.0975948
0.00324755
0.0978866
0.00291793
0.0981401
0.00261833
0.0983588
0.00234325
0.0985456
0.00208867
0.0987031
0.00185364
0.0988339
0.00163802
0.0989404
0.00144132
0.0990247
0.00126278
0.099089
0.00110178
0.0991352
0.000957703
0.0991654
0.000830279
0.0991814
0.000718832
0.0991852
0.000623601
0.0991784
0.000543165
0.0991634
0.000479388
0.099141
0.000428143
0.0991142
0.000396122
0.00037196
0.0964721
0.0031896
-0.0960604
0.0968349
0.00288475
0.0971541
0.00259877
0.0974348
0.00233758
0.0976808
0.00209724
0.0978949
0.00187458
0.0980797
0.00166883
0.0982378
0.00147995
0.0983715
0.00130759
0.0984832
0.00115117
0.0985748
0.00101015
0.0986485
0.000884022
0.0987062
0.000772536
0.0987499
0.000675123
0.0987816
0.000591945
0.0988029
0.000521867
0.098816
0.000466316
0.098822
0.000422116
0.0988237
0.000394356
0.000374545
0.0957703
0.00276022
-0.0953409
0.0961526
0.00250237
0.0964922
0.00225925
0.0967935
0.00203628
0.0970601
0.00183062
0.0972948
0.00163984
0.0975003
0.00146339
0.0976789
0.00130129
0.0978332
0.00115331
0.0979654
0.001019
0.0980776
0.000897939
0.0981719
0.000789699
0.0982504
0.00069406
0.0983149
0.000610563
0.0983676
0.000539306
0.09841
0.000479408
0.0984444
0.000431932
0.098472
0.000394481
0.0984955
0.00037085
0.000354807
0.095161
0.00231784
-0.0947186
0.0955581
0.00210527
0.0959132
0.00190414
0.0962304
0.00171906
0.096513
0.00154796
0.0967638
0.00138904
0.0969853
0.00124193
0.0971799
0.00110669
0.09735
0.000983168
0.097498
0.000871032
0.097626
0.000769953
0.0977361
0.000679601
0.0978304
0.000599786
0.0979108
0.000530148
0.0979794
0.00047074
0.0980379
0.000420894
0.0980884
0.000381383
0.0981325
0.000350435
0.0981725
0.000330829
0.000318054
0.094648
0.00186563
-0.0941958
0.0950564
0.0016969
0.0954236
0.00153693
0.0957533
0.00138936
0.0960486
0.00125269
0.096312
0.00112561
0.0965461
0.00100788
0.0967532
0.000899575
0.0969357
0.000800613
0.097096
0.00071075
0.0972362
0.000629739
0.0973585
0.000557331
0.0974649
0.000493375
0.0975575
0.000437597
0.0976382
0.000390023
0.0977089
0.000350163
0.0977717
0.000318562
0.0978282
0.000293946
0.0978808
0.000278297
0.00026842
0.0942342
0.00140593
-0.0937745
0.0946512
0.00127992
0.0950278
0.00116038
0.0953671
0.00105
0.0956722
0.000947639
0.0959454
0.00085237
0.0961892
0.000764061
0.096406
0.000682785
0.0965981
0.000608489
0.0967679
0.000541006
0.0969175
0.000480162
0.097049
0.000425778
0.0971646
0.000377743
0.0972664
0.000335863
0.0973563
0.000300144
0.0974362
0.000270251
0.0975082
0.000246539
0.097574
0.000228156
0.0976359
0.000216423
0.000209203
0.0939225
0.000940679
-0.0934572
0.0943458
0.000856579
0.0947292
0.000777024
0.0950756
0.000703588
0.0953878
0.000635439
0.0956682
0.000571969
0.0959191
0.000513112
0.096143
0.000458926
0.0963421
0.000409378
0.0965187
0.000364362
0.0966751
0.000323767
0.0968134
0.000287481
0.0969357
0.000255428
0.0970441
0.000227489
0.0971406
0.000203655
0.0972271
0.000183732
0.0973058
0.000167906
0.0973782
0.000155705
0.0974468
0.000147859
0.000143164
0.0937154
0.000471716
-0.0932465
0.0941429
0.00042911
0.0945305
0.000389383
0.0948814
0.000352774
0.095198
0.000318749
0.095483
0.000287031
0.0957385
0.000257615
0.0959669
0.000230533
0.0961705
0.000205766
0.0963516
0.000183259
0.0965124
0.000162957
0.0966551
0.000144809
0.0967817
0.000128775
0.0968944
0.000114805
0.0969952
0.000102874
0.097086
9.29338e-05
0.0971689
8.4976e-05
0.0972456
7.89713e-05
0.0973186
7.48855e-05
7.28511e-05
0.0936135
-0.0931418
0.0940427
0.094432
0.0947848
0.0951036
0.0953906
0.0956482
0.0958787
0.0960845
0.0962678
0.0964307
0.0965755
0.0967043
0.0968191
0.096922
0.0970149
0.0970999
0.0971789
0.0972537
0.0767314
0.0240992
-0.0749731
0.0786735
0.031246
0.0807092
0.0384177
0.0826597
0.045476
0.0842368
0.05215
0.0849697
0.0581181
0.0842465
0.0627983
0.0814969
0.065585
0.0760178
0.0662283
0.0624487
0.0757214
0.0223433
-0.0739654
0.0777456
0.0292218
0.0799891
0.0361741
0.0823451
0.0431201
0.0846297
0.0498654
0.086544
0.0562037
0.0875826
0.0617597
0.0874214
0.0657462
0.0849091
0.0687406
0.0664332
0.0746967
0.0206382
-0.0729917
0.0767279
0.0271907
0.0790619
0.0338401
0.0816473
0.0405347
0.0843718
0.0471409
0.0870956
0.0534799
0.0894047
0.0594507
0.091108
0.0640428
0.0911236
0.068725
0.0682829
0.0737364
0.0190111
-0.0721093
0.0757277
0.0251993
0.0780751
0.0314927
0.080766
0.0378438
0.0837251
0.0441818
0.0869058
0.0502992
0.0899851
0.0563715
0.0928134
0.0612145
0.0948128
0.0667256
0.0680378
0.0728692
0.0174676
-0.0713257
0.074798
0.0232705
0.0771109
0.0291797
0.0798168
0.0351379
0.0828611
0.0411375
0.0862343
0.0469259
0.0897449
0.052861
0.0932252
0.0577342
0.0965744
0.0633763
0.0660497
0.0720924
0.0160016
-0.0706263
0.0739522
0.0214107
0.0762078
0.026924
0.0788754
0.0324704
0.0819226
0.0380902
0.0853449
0.0435036
0.0890821
0.0491238
0.0929171
0.0538992
0.0970221
0.0592714
0.0628028
0.0713931
0.0146033
-0.0699949
0.0731866
0.0196173
0.07538
0.0247306
0.0779881
0.0298624
0.0810025
0.0350758
0.0844057
0.0401003
0.0882251
0.0453045
0.0922226
0.0499016
0.0966605
0.0548335
0.058755
0.0707598
0.0132639
-0.0694203
0.0724931
0.0178839
0.0746279
0.0225958
0.0771731
0.0273172
0.0801383
0.0321106
0.0834912
0.0367475
0.0872975
0.0414982
0.0913485
0.0458506
0.0958792
0.0503028
0.0542679
0.0701838
0.0119756
-0.0688955
0.0718639
0.0162038
0.0739454
0.0205143
0.0764312
0.0248314
0.0793398
0.029202
0.0826329
0.0334544
0.08638
0.0377511
0.0904282
0.0418024
0.0949365
0.0457945
0.0495882
0.0696614
0.0107334
-0.0684192
0.0712935
0.0145717
0.0733261
0.0184816
0.075758
0.0223995
0.078609
0.026351
0.0818446
0.0302188
0.0855189
0.0340768
0.0895342
0.0377871
0.0939747
0.041354
0.0448607
0.0691896
0.0095328
-0.067989
0.0707784
0.0129829
0.0727659
0.0164941
0.0751495
0.0200159
0.077946
0.0235545
0.0811292
0.0270356
0.0847321
0.0304739
0.088699
0.0338203
0.0930613
0.0369916
0.0401584
0.0687666
0.00836969
-0.0676035
0.0703164
0.0114332
0.0722625
0.014548
0.0746029
0.0176754
0.0773495
0.020808
0.0804846
0.0239006
0.0840233
0.0269351
0.0879364
0.0299073
0.0922248
0.0327032
0.0355109
0.0683915
0.00724041
-0.0672622
0.0699061
0.00991869
0.0718146
0.0126395
0.0741162
0.0153738
0.076818
0.0181062
0.0799089
0.0208097
0.083392
0.023452
0.0872521
0.0260471
0.0914752
0.0284801
0.0309257
0.0680635
0.00614148
-0.0669646
0.0695466
0.00843562
0.0714214
0.0107647
0.0736882
0.0131069
0.0763505
0.0154439
0.0794013
0.0177588
0.0828368
0.0200165
0.0866484
0.0222356
0.0908151
0.0243133
0.0263999
0.0677821
0.00506955
-0.0667102
0.0692372
0.00698051
0.0710821
0.00891985
0.0733181
0.0108709
0.0759462
0.0128158
0.0789617
0.0147433
0.082357
0.0166211
0.0861259
0.0184667
0.0902451
0.0201941
0.0219264
0.0675466
0.00402137
-0.0664984
0.0689772
0.00554991
0.0707962
0.00710086
0.0730055
0.00866167
0.0756046
0.0102167
0.0785899
0.0117581
0.0819521
0.0132589
0.0856853
0.0147335
0.0897656
0.0161138
0.0174962
0.0673562
0.00299377
-0.0663286
0.0687658
0.00414036
0.0705629
0.00530373
0.0727498
0.00647475
0.0753254
0.00764111
0.0782861
0.00879731
0.0816222
0.00992291
0.0853272
0.0110284
0.0893775
0.0120636
0.0130991
0.0672103
0.00198351
-0.0662
0.0686024
0.00274824
0.0703819
0.00352424
0.0725511
0.0043055
0.0751086
0.00508359
0.078051
0.00585494
0.0813681
0.00660586
0.0850532
0.00734327
0.0890828
0.00803402
0.00872474
0.0671089
0.000986998
-0.0661124
0.0684876
0.0013696
0.0702539
0.00175791
0.0724105
0.00214893
0.0749557
0.00253839
0.0778861
0.00292455
0.0811915
0.00330046
0.0848651
0.00366967
0.0888835
0.00401557
0.0043618
0.0670549
-0.066068
0.0684245
0.0701825
0.0723314
0.0748698
0.0777943
0.0810948
0.0847645
0.08878
0.030799
0.0561792
-0.052459
-0.0345192
0.026749
0.0573188
-0.0532689
0.022606
0.0586441
-0.0545011
0.0183913
0.0601755
-0.0559609
0.0141281
0.0618145
-0.0575513
0.00990915
0.06326
-0.059041
0.00595593
0.0635817
-0.0596285
0.00266743
0.0605262
-0.0572377
0.000560388
0.0497647
-0.0476577
0.0245144
-0.023954
0.0262831
0.0598022
-0.0299061
0.0225909
0.061011
0.0188218
0.0624133
0.0150005
0.0639968
0.0111678
0.0656472
0.00744356
0.0669842
0.00408389
0.0669414
0.00149889
0.0631112
0.000113658
0.0511499
0.0246281
0.0216347
0.0631086
-0.0249411
0.0182589
0.0643868
0.0148375
0.0658346
0.0114019
0.0674324
0.00801185
0.0690373
0.004817
0.0701791
0.00210969
0.0696487
0.000251169
0.0649697
-0.00033944
0.0517406
0.0242886
0.0166819
0.0660941
-0.0196674
0.0136523
0.0674164
0.0106038
0.0688832
0.00758064
0.0704556
0.0046691
0.0719488
0.00204794
0.0728002
2.04204e-05
0.0716762
-0.000946296
0.0659364
-0.00076385
0.0515581
0.0235248
0.0114192
0.0687401
-0.0140652
0.00875725
0.0700784
0.00611061
0.0715298
0.00353872
0.0730275
0.00115813
0.0743294
-0.000807786
0.0747661
-0.00201332
0.0728818
-0.00214434
0.0660675
-0.00116417
0.0505779
0.0223606
0.00585548
0.0710161
-0.00813146
0.00358169
0.0723522
0.00136988
0.0737416
-0.000707638
0.075105
-0.00250123
0.076123
-0.00375083
0.0760158
-0.00411106
0.073242
-0.00330789
0.0652643
-0.00152533
0.0487954
0.0208353
-2.33558e-05
0.0729457
-0.0019062
-0.00186152
0.0741903
-0.00359827
0.0754784
-0.00513138
0.0766381
-0.0062702
0.0772618
-0.00672378
0.0764693
-0.00615474
0.072673
-0.00438955
0.0634991
-0.00183162
0.0462375
0.0190037
-0.0061526
0.0744019
0.00469637
-0.00753761
0.0755753
-0.00875949
0.0767003
-0.00968355
0.0775621
-0.0100842
0.0776624
-0.00965059
0.0760357
-0.00808271
0.0711051
-0.00534274
0.0607591
-0.00206795
0.0429627
0.0169357
-0.0125497
0.0754076
0.011544
-0.0134231
0.0764487
-0.014062
0.0773392
-0.014293
0.0777931
-0.0138561
0.0772255
-0.01244
0.0746197
-0.00981719
0.0684822
-0.00612094
0.0570629
-0.00222306
0.0390648
0.0147127
-0.0191259
0.0186147
-0.019439
-0.0194181
-0.018854
-0.0174674
-0.0149771
-0.0112697
-0.00668038
-0.00229059
0.0540083
0.00576822
-0.0597765
0.0481087
0.00589958
0.0420585
0.00605024
0.0358368
0.00622171
0.0294172
0.00641955
0.0227797
0.0066375
0.01596
0.00681967
0.0091947
0.00676533
0.00324714
0.00594756
0.00324714
0.053545
0.0114921
-0.0592688
0.0476882
0.0117563
0.0416805
0.012058
0.0355017
0.0124005
0.0291263
0.012795
0.0225354
0.0132284
0.0157666
0.0135885
0.0090638
0.0134681
0.00320288
0.0118085
0.00645001
0.0526291
0.0171321
-0.0582692
0.0468551
0.0175304
0.0409301
0.0179829
0.0348349
0.0184957
0.0285457
0.0190843
0.022047
0.019727
0.0153841
0.0202515
0.00880889
0.0200433
0.00308876
0.0175286
0.00953877
0.0512729
0.0226497
-0.0567905
0.0456193
0.023184
0.0398151
0.0237871
0.0338427
0.0244681
0.0276805
0.0252464
0.021319
0.0260886
0.0148134
0.0267571
0.00842815
0.0264285
0.00292441
0.0230324
0.0124632
0.0494962
0.0280114
-0.0548578
0.0439964
0.0286838
0.0383471
0.0294364
0.0325333
0.030282
0.0265369
0.0312427
0.0203556
0.0322699
0.0140584
0.0330542
0.00792608
0.0325609
0.00270975
0.0282487
0.0151729
0.0473242
0.03319
-0.0525028
0.0420051
0.0340029
0.0365396
0.0349019
0.0309162
0.0359054
0.0251215
0.0370374
0.0191619
0.0382295
0.0131238
0.0390923
0.0073067
0.038378
0.002447
0.0331084
0.0176199
0.0447836
0.0381686
-0.0497621
0.0396629
0.0391235
0.0344042
0.0401606
0.0290002
0.0413094
0.0234407
0.0425969
0.0177432
0.043927
0.0120146
0.0448209
0.00657493
0.0438176
0.00213952
0.0375438
0.0197595
0.0419114
0.0429477
-0.0466906
0.0369888
0.0440462
0.0319538
0.0451955
0.0267947
0.0464686
0.0215014
0.0478902
0.0161051
0.0493233
0.0107365
0.0501895
0.00573692
0.0488172
0.00179153
0.0414892
0.021551
0.0386661
0.0476079
-0.0433263
0.0339358
0.0487765
0.0291622
0.0499691
0.0242842
0.0513465
0.0192956
0.0528789
0.0142464
0.0543725
0.00929357
0.0551423
0.00479913
0.0533116
0.00140789
0.0448804
0.0229589
0.0351643
-0.0400154
0.0306719
0.02614
0.0215256
0.0168532
0.0121846
0.00769845
0.0037724
0.000995159
0.0710688
-0.00035811
0.0713682
-0.000299378
0.0716079
-0.000239748
0.0717859
-0.00017796
0.0718989
-0.000113032
0.0719427
-4.374e-05
0.0719121
3.05307e-05
0.0718029
0.00010923
0.0716073
0.000195654
0.0713167
0.000290586
0.0709212
0.000395511
0.0704089
0.000512236
0.069766
0.00064288
0.0689761
0.00078994
0.0680197
0.000956375
0.066874
0.0011457
0.0655119
0.00136212
0.0639012
0.00161068
0.0620039
0.00189728
0.00222744
0.0710444
-0.00069177
0.0713191
-0.00057408
0.0715338
-0.000454463
0.0716864
-0.000330553
0.0717737
-0.000200341
0.0717911
-6.11122e-05
0.0717353
8.62893e-05
0.0716002
0.000244329
0.0713786
0.000417286
0.071062
0.000607168
0.0706405
0.000816991
0.0701024
0.00105037
0.0694337
0.00131154
0.0686182
0.00160549
0.0676364
0.00193814
0.0664656
0.00231653
0.0650786
0.00274907
0.0634434
0.0032459
0.0615218
0.0038189
0.00448039
0.0709958
-0.000976889
0.0712212
-0.000799432
0.0713859
-0.000619196
0.0714881
-0.000432782
0.071525
-0.000237234
0.0714897
-2.57876e-05
0.0713835
0.000192496
0.071197
0.000430821
0.0709238
0.000690485
0.0705556
0.000975329
0.0700826
0.00128999
0.0694931
0.00163987
0.0687734
0.00203131
0.0679071
0.00247178
0.0668751
0.00297015
0.0656546
0.00353695
0.0642189
0.00418478
0.062536
0.00492882
0.0605682
0.00578671
0.00677942
0.0709234
-0.00118955
0.0710752
-0.000951316
0.0711656
-0.00070952
0.0711924
-0.000459591
0.0711523
-0.000197166
0.0710444
8.21592e-05
0.0708614
0.000375425
0.0705985
0.000693792
0.0702487
0.00104026
0.0698039
0.00142008
0.0692545
0.00183944
0.0685888
0.00230555
0.0677933
0.00282685
0.0668518
0.00341325
0.0657454
0.00407652
0.0644518
0.00483064
0.0629442
0.00569231
0.0611914
0.0066817
0.059156
0.00782202
0.00914496
0.0708276
-0.00130643
0.0708826
-0.00100634
0.0708752
-0.000702081
0.0708037
-0.00038813
0.0706634
-5.68643e-05
0.0704568
0.000288765
0.0701737
0.000658474
0.0698105
0.00105708
0.0693603
0.00149045
0.0688151
0.00196524
0.0681654
0.00248916
0.0673998
0.00307117
0.0665049
0.00372175
0.0654649
0.00445322
0.0642612
0.00528017
0.0628719
0.00621993
0.0612711
0.00729319
0.0594278
0.00852498
0.0573061
0.00994372
0.0115932
0.0707092
-0.00130489
0.0706448
-0.000941927
0.0705168
-0.000574087
0.0703232
-0.000194523
0.0700641
0.000202168
0.0697338
0.00061908
0.0693281
0.00106419
0.0688418
0.0015434
0.0682684
0.00206387
0.0675999
0.00263365
0.0668272
0.00326194
0.0659389
0.0039594
0.0649222
0.00473849
0.0637616
0.00561379
0.0624392
0.00660258
0.0609338
0.0077254
0.0592202
0.00900673
0.0572689
0.0104763
0.0550452
0.0121674
0.0141356
0.070569
-0.00116318
0.0703638
-0.00073671
0.0700942
-0.000304532
0.0697587
0.000140957
0.0693566
0.000604351
0.0688825
0.00109317
0.0683328
0.0016139
0.0677021
0.00217402
0.0669842
0.00278184
0.0661711
0.00344669
0.0652539
0.0041792
0.0642216
0.00499163
0.0630619
0.00589823
0.06176
0.00691569
0.0602989
0.00806365
0.0586588
0.00936552
0.0568164
0.0108492
0.0547434
0.0125492
0.0524071
0.0145037
0.0167806
0.070408
-0.000860493
0.0700418
-0.000370459
0.0696105
0.000126702
0.0691137
0.00063777
0.068548
0.00117002
0.0679105
0.00173072
0.0671968
0.00232757
0.0664018
0.00296903
0.0655192
0.00366448
0.0645414
0.00442445
0.0634597
0.00526089
0.0622639
0.0061875
0.060942
0.00722009
0.0594806
0.00837715
0.0578639
0.00968028
0.0560741
0.0111554
0.0540906
0.0128327
0.0518882
0.0147516
0.0494381
0.0169538
0.0195281
0.0702277
-0.000377472
0.0696818
0.000175457
0.0690711
0.000737328
0.0683935
0.00131541
0.0676465
0.001917
0.0668269
0.00255031
0.0659304
0.00322406
0.0649518
0.00394763
0.0638849
0.00473138
0.0627225
0.00558685
0.0614564
0.00652702
0.0600772
0.00756665
0.0585748
0.00872256
0.0569376
0.0100143
0.0551534
0.0114645
0.053208
0.0131008
0.0510857
0.0149549
0.0487611
0.0170762
0.0462139
0.0195011
0.0224157
0.0700307
0.000302519
0.0692906
0.000915614
0.0684848
0.00154307
0.0676118
0.00218844
0.0666691
0.00285968
0.0656533
0.00356609
0.06456
0.0043174
0.0633837
0.00512394
0.0621181
0.005997
0.0607559
0.00694905
0.059289
0.00799388
0.0577088
0.00914681
0.0560066
0.0104248
0.0541739
0.011847
0.0522043