/*--------------------------------*- C++ -*----------------------------------*\
| =========                 |                                                 |
| \\      /  F ield         | OpenFOAM: The Open Source CFD Toolbox           |
|  \\    /   O peration     | Version:  4.1                                   |
|   \\  /    A nd           | Web:      www.OpenFOAM.org                      |
|    \\/     M anipulation  |                                                 |
\*---------------------------------------------------------------------------*/
FoamFile
{
    version     2.0;
    format      ascii;
    class       surfaceScalarField;
    location    "15";
    object      phi;
}
// * * * * * * * * * * * * * * * * * * * * * * * * * * * * * * * * * * * * * //

dimensions      [0 3 -1 0 0 0 0];

internalField   nonuniform List<scalar> 
7430
(
-0.000300045
0.00272169
-0.00242164
-0.000143975
0.00431213
-0.0044682
0.00118216
0.00309841
-0.00442455
0.00451777
-0.000686851
-0.00264875
0.0106099
-0.00684245
0.000750272
0.019706
-0.0147517
0.00565567
0.0309963
-0.0230082
0.0117179
0.0443416
-0.0309292
0.0175839
0.0583359
-0.0387988
0.0248044
-0.0430282
0.0303502
0.071014
-0.000293918
0.0030156
0.000262623
0.00375558
0.0028718
0.000489232
0.00875612
-0.00657117
0.0182593
-0.0163456
0.0304405
-0.026933
0.0438925
-0.0364602
0.057641
-0.0446777
0.0691088
-0.0502665
-0.0542435
0.080324
-0.000150118
0.00316572
0.00121746
0.00238801
0.00595461
-0.00424792
0.0150719
-0.0156885
0.0274477
-0.0287213
0.0408868
-0.0403721
0.0537355
-0.0493089
0.0644391
-0.0553813
0.0729349
-0.0587623
-0.0611177
0.0798091
0.00011693
0.00304879
0.00280249
-0.000297549
0.0104297
-0.0118752
0.0223463
-0.027605
0.0355752
-0.0419502
0.0476473
-0.0524442
0.057293
-0.0589547
0.0643513
-0.0624396
0.0695706
-0.0639815
-0.0644863
0.0729391
0.000477376
0.00257142
0.00517262
-0.0049928
0.0156915
-0.022394
0.0285416
-0.0404551
0.0401948
-0.0536035
0.0491349
-0.0613843
0.0554214
-0.0652412
0.0597956
-0.0668138
0.0629174
-0.0671033
-0.0671656
0.0655967
0.00103236
0.00153906
0.00827811
-0.0122386
0.0203306
-0.0344465
0.0319181
-0.0520427
0.0407265
-0.0624119
0.0467248
-0.0673826
0.0507467
-0.0692631
0.0535525
-0.0696196
0.0558722
-0.069423
-0.0691
0.0578066
0.00200218
-0.000463123
0.0114891
-0.0217255
0.0230638
-0.0460212
0.0322606
-0.0612395
0.0384254
-0.0685767
0.0423376
-0.0712948
0.044894
-0.0718195
0.0467868
-0.0715124
0.0483325
-0.0709687
-0.0703836
0.049616
0.00335171
-0.00381483
0.0138853
-0.0322591
0.0236959
-0.0558318
0.0304515
-0.0679951
0.0345448
-0.07267
0.036976
-0.073726
0.0385668
-0.0734102
0.039756
-0.0727017
0.0407562
-0.0719689
-0.071301
0.0416737
0.00476895
-0.00858378
0.0148449
-0.042335
0.022642
-0.0636289
0.0273139
-0.072667
0.0298368
-0.0751929
0.0312403
-0.0751295
0.0321306
-0.0743005
0.0327909
-0.073362
0.0333186
-0.0724966
-0.0716982
0.0337159
0.00587547
-0.0144592
0.0145705
-0.05103
0.0204114
-0.0694698
0.0234201
-0.0756758
0.0247947
-0.0765674
0.0254298
-0.0757646
0.0257574
-0.0746281
0.0259289
-0.0735335
0.0259768
-0.0725446
0.0259607
-0.0716821
-0.000972991
0.000972991
-0.00275887
0.00178588
-0.00489206
0.00213319
-0.00719517
0.00230311
-0.0096137
0.00241852
-0.0121395
0.00252577
-0.0147773
0.00263778
-0.0175354
0.00275813
-0.0204281
0.00289275
0.00305243
-0.0234806
-0.000837133
0.00181012
-0.00241436
0.00336311
-0.00432004
0.00403887
-0.00636854
0.00435161
-0.00848958
0.00453956
-0.0106632
0.0046994
-0.0128869
0.00486149
-0.0151631
0.00503434
-0.0174985
0.00522814
0.00546616
-0.0199123
-0.000594354
0.00240448
-0.00180031
0.00456906
-0.00328812
0.00552668
-0.00487155
0.00593504
-0.00645662
0.00612463
-0.00800144
0.00624421
-0.00948953
0.00634959
-0.0109144
0.00645924
-0.012269
0.00658275
0.00675666
-0.0135595
-0.000306151
0.00271063
-0.00104466
0.00530757
-0.00199556
0.00647759
-0.00298305
0.00692253
-0.00389149
0.00703307
-0.00465361
0.00700633
-0.0052333
0.00692929
-0.00561465
0.00684058
-0.00578358
0.00675169
0.00667589
-0.00570281
-3.98862e-05
0.00275051
-0.000306548
0.00557423
-0.000693494
0.00686453
-0.00105051
0.00727955
-0.00125476
0.00723732
-0.0012207
0.00697227
-0.000892049
0.00660064
-0.000233648
0.00618218
0.000778408
0.00573963
0.0052952
0.0021591
0.000144914
0.0026056
0.000257783
0.00546136
0.000362727
0.00675959
0.000569695
0.00707258
0.00099012
0.0068169
0.00171426
0.00624813
0.00281257
0.00550233
0.00433074
0.00466401
0.00628298
0.00378739
0.00253923
0.00903894
0.000211326
0.00239427
0.000537853
0.00513483
0.000973712
0.00632373
0.00159283
0.00645346
0.00248897
0.00592075
0.00375991
0.00497719
0.00551422
0.00374803
0.00785249
0.00232574
0.0106543
0.000985614
-0.00183178
0.0150253
0.000153103
0.00224117
0.00049997
0.00478797
0.00107123
0.00575247
0.00193981
0.00558488
0.0032254
0.00463516
0.0051041
0.00309849
0.00781714
0.00103498
0.0115618
-0.0014189
0.0161251
-0.00357771
-0.00888688
0.0231802
6.71369e-07
0.0022405
0.000222417
0.00456622
0.000814709
0.00516018
0.00194433
0.00445526
0.00388652
0.00269297
0.00702002
-3.50093e-05
0.0117704
-0.00371543
0.0180814
-0.00772988
0.0264256
-0.0119219
-0.0190903
0.0366291
-0.000181142
-8.31181e-05
0.000652511
0.00245902
0.00590227
0.0115229
0.0195254
0.0293794
0.0422619
0.0535218
-0.0268701
0.0033895
-0.0300257
0.00315562
-0.0331063
0.00308064
-0.0360592
0.00295289
-0.0389052
0.002846
-0.0416264
0.00272124
-0.0442199
0.00259346
-0.0466745
0.00245456
-0.0489839
0.00230948
-0.0511414
0.00215742
-0.0531425
0.00200113
-0.0549841
0.00184158
-0.0566647
0.00168061
-0.0581838
0.00151913
-0.0595416
0.00135784
-0.0607383
0.00119663
-0.0617736
0.00103531
-0.0626494
0.000875824
-0.0633724
0.000722999
-0.063936
0.000563547
-0.0643231
0.000387146
-0.0645105
0.000187347
-0.0644767
-3.37226e-05
-0.0642474
-0.000229333
-0.0637931
-0.000454265
-0.0630897
-0.000703415
-0.0621134
-0.000976326
-0.0608409
-0.00127248
-0.0592504
-0.0015905
-0.0573236
-0.00192683
-0.0550473
-0.0022763
-0.0524151
-0.00263222
-0.0494317
-0.00298342
-0.0461082
-0.00332344
-0.0424702
-0.003638
-0.0385533
-0.00391696
-0.0343997
-0.00415359
-0.0300551
-0.00434456
-0.0255842
-0.00447088
-0.0210409
-0.00454332
-0.0164728
-0.00456811
-0.0119415
-0.00453127
-0.00748808
-0.00445347
-0.00313223
-0.00435585
0.00107735
-0.00420958
0.00511989
-0.00404254
0.0089785
-0.00385861
0.0126408
-0.00366229
0.0160994
-0.00345858
0.0193514
-0.00325201
0.0223978
-0.00304641
0.0252426
-0.0028448
0.0278921
-0.00264951
0.0303541
-0.00246204
0.0326379
-0.00228379
0.0347535
-0.00211559
0.0367116
-0.00195805
0.0385227
-0.00181117
0.0401978
-0.00167507
0.041747
-0.00154919
0.0431805
-0.00143348
0.0445075
-0.00132697
0.0457372
-0.0012297
0.0468775
-0.00114034
0.0479367
-0.00105924
0.0489213
-0.000984591
0.0498387
-0.000917404
0.0506939
-0.000855148
0.0514938
-0.00079988
0.0522416
-0.000747877
0.0529445
-0.000702892
0.0536038
-0.00065923
0.0542271
-0.00062333
0.0548134
-0.000586303
0.0553722
-0.000558781
0.055899
-0.000526851
0.0564066
-0.000507557
0.0568859
-0.000479365
0.0573547
-0.000468742
-0.000442712
-0.0229286
0.00640583
-0.0257653
0.00599238
-0.0285163
0.0058316
-0.0311748
0.00561137
-0.0337398
0.00541102
-0.0361981
0.00517951
-0.0385402
0.0049356
-0.0407558
0.00467016
-0.0428364
0.00439005
-0.0447748
0.00409587
-0.0465659
0.00379217
-0.0482061
0.00348175
-0.0496935
0.00316808
-0.0510278
0.00285338
-0.0522092
0.00253922
-0.0532384
0.0022259
-0.0541161
0.00191299
-0.0548409
0.00160063
-0.0554143
0.00129639
-0.0558432
0.000992393
-0.0561119
0.000655921
-0.056192
0.00026745
-0.0560885
-0.000137254
-0.0557928
-0.00052504
-0.0552858
-0.000961311
-0.0545469
-0.00144232
-0.0535537
-0.00196949
-0.0522834
-0.00254273
-0.0507142
-0.00315973
-0.0488274
-0.00381361
-0.04661
-0.0044937
-0.0440534
-0.00518883
-0.0411646
-0.00587218
-0.0379521
-0.00653598
-0.0344385
-0.00715155
-0.0306593
-0.0076962
-0.0266634
-0.00814951
-0.0224795
-0.00852844
-0.0181872
-0.00876317
-0.0138354
-0.00889512
-0.00945677
-0.00894675
-0.00511968
-0.00886835
-0.000860469
-0.00871267
0.00325336
-0.00846968
0.00723564
-0.00819187
0.0110551
-0.00786202
0.0146922
-0.00749565
0.018135
-0.00710515
0.0213774
-0.00670095
0.0244174
-0.00629197
0.0272567
-0.00588573
0.0299
-0.00548809
0.0323542
-0.00510374
0.0346279
-0.00473578
0.0367307
-0.00438656
0.0386726
-0.00405746
0.0404642
-0.00374971
0.0421162
-0.00346319
0.0436393
-0.00319816
0.0450435
-0.0029534
0.0463389
-0.00272881
0.0475343
-0.0025224
0.0486389
-0.00233427
0.0496602
-0.00216163
0.0506063
-0.00200532
0.0514832
-0.00186159
0.0522984
-0.00173261
0.0530564
-0.0016131
0.053764
-0.00150747
0.054424
-0.00140792
0.0550436
-0.00132243
0.0556234
-0.00123902
0.0561714
-0.00117133
0.0566857
-0.00110066
0.0571764
-0.00104943
0.0576379
-0.000988407
0.0580838
-0.000953418
0.0585037
-0.000899243
0.0589163
-0.000881341
-0.000831895
-0.0158593
0.00870556
-0.0181027
0.00823585
-0.0202783
0.00800716
-0.0224205
0.00775362
-0.02451
0.00750049
-0.0265245
0.00719404
-0.0284514
0.00686243
-0.030278
0.00649681
-0.031993
0.00610501
-0.0335875
0.0056904
-0.0350544
0.00525901
-0.0363886
0.00481603
-0.0375873
0.00436678
-0.0386492
0.00391527
-0.0395744
0.00346437
-0.0403638
0.0030153
-0.0410185
0.00256777
-0.0415387
0.00212074
-0.0419169
0.00167465
-0.0421635
0.00123897
-0.0422793
0.00077173
-0.0422287
0.000216843
-0.0420384
-0.000327563
-0.041675
-0.000888458
-0.0411263
-0.00151001
-0.0403754
-0.00219324
-0.0394019
-0.00294297
-0.0381834
-0.00376117
-0.0366974
-0.0046458
-0.0349229
-0.00558808
-0.0328458
-0.00657084
-0.0304578
-0.00757676
-0.0277655
-0.00856448
-0.0247765
-0.00952505
-0.0215063
-0.0104217
-0.0179847
-0.0112178
-0.0142845
-0.0118498
-0.0103457
-0.0124672
-0.00633952
-0.0127694
-0.00227784
-0.0129568
0.00172195
-0.0129465
0.00568293
-0.0128293
0.00956893
-0.0125987
0.0133551
-0.0122559
0.0169945
-0.0118313
0.0204696
-0.0113371
0.0237655
-0.0107915
0.0268724
-0.0102121
0.0297856
-0.00961411
0.0325042
-0.00901061
0.035031
-0.00841254
0.0373713
-0.00782839
0.0395326
-0.00726497
0.0415236
-0.00672681
0.0433545
-0.00621744
0.0450355
-0.00573844
0.0465771
-0.00529131
0.0479897
-0.00487579
0.0492837
-0.00449218
0.0504689
-0.00413863
0.051555
-0.00381494
0.0525507
-0.00351807
0.0534646
-0.00324813
0.0543039
-0.00300097
0.0550763
-0.00277777
0.0557878
-0.002573
0.0564449
-0.00238976
0.0570522
-0.00222041
0.0576159
-0.00207117
0.0581389
-0.00193093
0.0586273
-0.00181084
0.0590825
-0.00169417
0.0595108
-0.00159964
0.0599118
-0.00150167
0.0602929
-0.00143053
0.0606515
-0.00134699
0.0609966
-0.00129853
0.0613231
-0.00122579
0.0616426
-0.00120083
-0.00113603
-0.00701148
0.0100142
-0.00843527
0.00965964
-0.0098902
0.00946209
-0.0113794
0.00924281
-0.0128889
0.00900999
-0.0143735
0.00867868
-0.0158176
0.00830645
-0.0172042
0.00788345
-0.0185181
0.00741893
-0.0197471
0.00691935
-0.0208803
0.00639222
-0.0219096
0.00584535
-0.0228292
0.00528639
-0.0236355
0.00472156
-0.0243267
0.00415554
-0.0249026
0.00359121
-0.025364
0.00302923
-0.0257115
0.00246822
-0.025942
0.00190518
-0.0260449
0.00134186
-0.0260444
0.000771168
-0.0259057
7.81452e-05
-0.0256608
-0.000572405
-0.0252664
-0.0012829
-0.0247169
-0.00205948
-0.0239979
-0.00291224
-0.0230911
-0.00384981
-0.0219755
-0.00487673
-0.0206289
-0.00599241
-0.019026
-0.00719101
-0.0171463
-0.00845056
-0.0149876
-0.0097354
-0.0125267
-0.0110254
-0.00980677
-0.012245
-0.00683197
-0.0133965
-0.00360677
-0.014443
-0.000136399
-0.0153202
0.00321243
-0.015816
0.00672693
-0.0162839
0.0102996
-0.0165295
0.0139024
-0.0165493
0.0174686
-0.0163955
0.0209534
-0.0160835
0.0243289
-0.0156313
0.0275655
-0.0150679
0.0306453
-0.0144169
0.0335557
-0.013702
0.0362888
-0.0129451
0.0388409
-0.0121662
0.041212
-0.0113817
0.0434053
-0.0106058
0.0454261
-0.00984926
0.047282
-0.00912083
0.0489815
-0.0084263
0.0505342
-0.00777014
0.0519501
-0.00715433
0.0532393
-0.00658058
0.0544118
-0.00604821
0.0554771
-0.00555753
0.0564446
-0.00510606
0.0573231
-0.00469351
0.0581209
-0.00431589
0.0588461
-0.00397324
0.0595053
-0.00366025
0.0601058
-0.00337822
0.060653
-0.0031202
0.0611531
-0.00288983
0.0616103
-0.00267767
0.0620302
-0.00249107
0.0624159
-0.00231662
0.0627724
-0.00216733
0.0631017
-0.00202347
0.0634087
-0.00190661
0.0636942
-0.00178723
0.0639634
-0.00169967
0.0642159
-0.00159956
0.0644574
-0.00153998
0.0646865
-0.00145486
0.0649095
-0.00142386
-0.00135012
0.00203234
0.010141
0.00154895
0.010143
0.000903294
0.0101077
0.000136173
0.0100099
-0.000671362
0.00981752
-0.00154872
0.00955604
-0.00246176
0.00921949
-0.00338504
0.00880673
-0.00429751
0.0083314
-0.00518067
0.00780252
-0.0060173
0.00722885
-0.00679251
0.00662055
-0.00749373
0.00598761
-0.00811147
0.0053393
-0.00863967
0.00468374
-0.00907466
0.0040262
-0.00941446
0.00336903
-0.00965795
0.00271171
-0.00980323
0.00205046
-0.00984093
0.00137956
-0.00976692
0.000697154
-0.00961342
-7.53473e-05
-0.00933646
-0.000849373
-0.00893402
-0.00168534
-0.00839704
-0.00259646
-0.00771157
-0.00359771
-0.00686054
-0.00470084
-0.00582459
-0.00591269
-0.00458406
-0.00723294
-0.00311855
-0.00865652
-0.00139094
-0.0101782
0.000547701
-0.011674
0.00264189
-0.0131196
0.0049781
-0.0145812
0.00753399
-0.0159524
0.0102694
-0.0171784
0.0131332
-0.0181839
0.0162143
-0.0188971
0.0193417
-0.0194113
0.0224918
-0.0196796
0.0256402
-0.0196977
0.0287412
-0.0194966
0.0317617
-0.019104
0.0346772
-0.0185468
0.0374657
-0.0178565
0.0401122
-0.0170634
0.0426063
-0.016196
0.0449416
-0.0152805
0.0471157
-0.0143403
0.0491291
-0.0133951
0.050985
-0.0124617
0.0526887
-0.0115529
0.0542469
-0.010679
0.0556675
-0.00984694
0.0569593
-0.00906188
0.058131
-0.00832609
0.0591919
-0.00764148
0.0601508
-0.00700712
0.0610164
-0.00642307
0.0617966
-0.00588634
0.0624996
-0.00539643
0.0631324
-0.00494867
0.063702
-0.00454292
0.0642147
-0.00417296
0.0646766
-0.00384008
0.0650927
-0.00353628
0.0654682
-0.00326538
0.0658074
-0.0030168
0.0661146
-0.00279829
0.0663931
-0.00259516
0.0666469
-0.00242111
0.0668784
-0.002255
0.0670912
-0.00211938
0.0672871
-0.00198313
0.0674693
-0.00188186
0.0676392
-0.00176947
0.0677998
-0.00170063
0.0679522
-0.00160723
0.0680995
-0.0015712
-0.00149242
0.0100037
0.00917624
0.0105302
0.0096165
0.0107861
0.00985191
0.0108738
0.00992214
0.0107758
0.0099156
0.0105153
0.00981647
0.0101402
0.00959467
0.0096846
0.00926229
0.00917428
0.00884172
0.00863262
0.00834418
0.00808183
0.00777963
0.00754152
0.00716087
0.0070284
0.00650072
0.00655683
0.00581088
0.00613899
0.00510159
0.00578471
0.00438048
0.00550165
0.00365208
0.00529569
0.00291767
0.0051736
0.00217254
0.00514255
0.00141061
0.0052154
0.000624303
0.00537152
-0.000231465
0.00563919
-0.00111704
0.0060229
-0.00206904
0.00653022
-0.00310378
0.00717148
-0.00423897
0.00795937
-0.00548873
0.00890755
-0.00686087
0.0100289
-0.00835429
0.0113318
-0.0099594
0.0128131
-0.0116595
0.0145026
-0.0133635
0.0164317
-0.0150487
0.0185442
-0.0166937
0.020818
-0.0182262
0.0232206
-0.019581
0.0257314
-0.0206947
0.0283544
-0.0215201
0.0310156
-0.0220724
0.0336797
-0.0223437
0.0363213
-0.0223393
0.038911
-0.0220863
0.0414245
-0.0216175
0.0438428
-0.0209651
0.0461501
-0.0201638
0.0483348
-0.019248
0.0503889
-0.0182501
0.052308
-0.0171997
0.0540908
-0.016123
0.0557382
-0.0150425
0.0572535
-0.013977
0.0586414
-0.0129409
0.0599081
-0.0119457
0.0610604
-0.0109992
0.0621057
-0.0101072
0.0630516
-0.00927198
0.0639058
-0.00849561
0.0646755
-0.00777691
0.0653682
-0.00711576
0.0659906
-0.00650866
0.066549
-0.00595487
0.0670495
-0.00544919
0.0674978
-0.00499123
0.0678991
-0.00457421
0.0682582
-0.00419919
0.0685795
-0.00385759
0.0688672
-0.00355309
0.0691249
-0.0032745
0.0693562
-0.00302953
0.0695639
-0.00280292
0.0697512
-0.00260837
0.0699204
-0.00242426
0.0700742
-0.0022731
0.0702145
-0.0021235
0.0703436
-0.00201092
0.0704633
-0.00188918
0.0705754
-0.00181275
0.0706816
-0.00171343
0.0707838
-0.00167336
-0.00159138
0.0165651
0.00763637
0.0177221
0.00845955
0.0186792
0.00889478
0.0195036
0.00909772
0.020133
0.00928625
0.0205568
0.00939268
0.0208006
0.00935081
0.0208882
0.00917475
0.0208435
0.00888639
0.0206936
0.00849414
0.0204654
0.0080078
0.0201844
0.00744181
0.0198742
0.00681097
0.0195564
0.00612865
0.019251
0.00540701
0.0189756
0.00465585
0.0187462
0.00388151
0.0185758
0.00308805
0.0184755
0.00227291
0.0184552
0.00143087
0.0185202
0.000559298
0.0186741
-0.000385334
0.0189349
-0.00137785
0.0193114
-0.0024456
0.0198127
-0.00360509
0.0204469
-0.00487312
0.0212227
-0.00626458
0.0221484
-0.00778657
0.0232301
-0.00943597
0.0244682
-0.0111975
0.0258542
-0.0130454
0.0274099
-0.0149193
0.0291293
-0.0167681
0.0309793
-0.0185437
0.0329336
-0.0201805
0.0349672
-0.0216146
0.0370601
-0.0227876
0.0391992
-0.0236593
0.0413502
-0.0242234
0.043487
-0.0244806
0.0455913
-0.0244436
0.0476451
-0.0241401
0.0496319
-0.0236043
0.0515387
-0.0228719
0.0533546
-0.0219797
0.0550712
-0.0209647
0.0566832
-0.0198621
0.0581877
-0.0187041
0.0595839
-0.0175193
0.0608733
-0.016332
0.0620589
-0.0151625
0.0631448
-0.0140268
0.064136
-0.012937
0.0650383
-0.0119015
0.0658575
-0.0109264
0.0665996
-0.0100141
0.0672706
-0.00916662
0.0678763
-0.00838263
0.0684223
-0.00766178
0.0689139
-0.00700022
0.0693559
-0.0063969
0.069753
-0.00584626
0.0701094
-0.00534767
0.0704292
-0.00489399
0.0707161
-0.00448604
0.0709734
-0.0041149
0.0712043
-0.00378401
0.0714117
-0.00348193
0.0715983
-0.0032161
0.0717665
-0.00297112
0.0719185
-0.00276036
0.0720565
-0.00256221
0.0721821
-0.00239877
0.0722975
-0.00223883
0.0724039
-0.00211734
0.0725032
-0.00198844
0.0725965
-0.00190611
0.0726854
-0.00180233
0.0727713
-0.00175921
-0.00167486
0.0240673
0.00674927
0.0248376
0.00768922
0.0257259
0.0080065
0.0266798
0.00814388
0.0275872
0.00837881
0.0284081
0.00857176
0.0291135
0.00864543
0.0296783
0.0086099
0.0300961
0.00846865
0.0303745
0.00821571
0.0305287
0.00785361
0.0305785
0.007392
0.030547
0.00684252
0.0304586
0.00621704
0.0303382
0.00552737
0.03021
0.00478408
0.0300965
0.00399502
0.0300198
0.00316477
0.0299962
0.00229647
0.0300402
0.00138686
0.0301628
0.000436704
0.0303892
-0.00061174
0.0307103
-0.00169896
0.0311479
-0.00288319
0.031707
-0.00416416
0.0323906
-0.00555671
0.0332002
-0.00707424
0.0341344
-0.00872075
0.0351893
-0.0104908
0.0363595
-0.0123677
0.0376354
-0.0143213
0.039013
-0.0162969
0.0404781
-0.0182332
0.0420056
-0.0200713
0.043575
-0.0217499
0.045169
-0.0232085
0.0467766
-0.0243952
0.0483914
-0.0252741
0.0499999
-0.0258319
0.051589
-0.0260696
0.0531482
-0.0260028
0.0546681
-0.0256599
0.0561385
-0.0250748
0.0575505
-0.0242838
0.0588962
-0.0233254
0.0601697
-0.0222382
0.0613671
-0.0210595
0.0624862
-0.0198232
0.0635269
-0.01856
0.0644905
-0.0172956
0.0653795
-0.0160514
0.0661969
-0.0148442
0.0669466
-0.0136868
0.0676328
-0.0125877
0.0682596
-0.0115532
0.0688313
-0.0105858
0.0693522
-0.00968743
0.0698261
-0.00885658
0.0702571
-0.00809273
0.0706487
-0.00739182
0.0710043
-0.00675259
0.0713273
-0.00616925
0.0716206
-0.00564095
0.071887
-0.00516038
0.0721291
-0.00472812
0.0723493
-0.00433514
0.07255
-0.00398464
0.0727331
-0.00366509
0.0729007
-0.00338366
0.0730545
-0.00312497
0.0731962
-0.00290206
0.0733274
-0.00269342
0.0734494
-0.00252078
0.0735637
-0.0023531
0.0736713
-0.00222498
0.0737736
-0.00209069
0.0738715
-0.00200405
0.073966
-0.00189684
0.0740585
-0.00185163
-0.00176543
0.0357768
0.00760158
0.0353208
0.00814522
0.0353142
0.00801312
0.0355081
0.00794998
0.0358635
0.00802335
0.0363567
0.00807859
0.0369171
0.00808499
0.0374811
0.00804591
0.0380077
0.00794207
0.0384706
0.00775279
0.0388553
0.00746892
0.0391584
0.0070889
0.0393858
0.00661517
0.0395499
0.00605291
0.0396678
0.0054095
0.0397599
0.00469193
0.0398467
0.00390819
0.0399507
0.00306084
0.0400916
0.00215557
0.0402867
0.00119175
0.0405227
0.000200668
0.0408988
-0.000987814
0.0413354
-0.00213553
0.0418738
-0.00342165
0.0425138
-0.00480415
0.0432561
-0.00629905
0.0440962
-0.00791434
0.0450239
-0.00964836
0.0460242
-0.0114912
0.047078
-0.0134215
0.0481636
-0.0154069
0.0492659
-0.0173992
0.0503748
-0.0193421
0.051483
-0.0211795
0.0525835
-0.0228504
0.0536726
-0.0242976
0.0547514
-0.025474
0.0558234
-0.0263461
0.0568878
-0.0268962
0.0579399
-0.0271218
0.0589758
-0.0270387
0.0599904
-0.0266746
0.0609772
-0.0260615
0.0619296
-0.0252361
0.0628419
-0.0242378
0.0637102
-0.0231065
0.0645317
-0.021881
0.0653055
-0.020597
0.0660316
-0.0192861
0.066711
-0.017975
0.0673453
-0.0166858
0.0679365
-0.0154353
0.0684866
-0.0142369
0.0689979
-0.0130989
0.0694725
-0.0120278
0.0699128
-0.0110261
0.0703209
-0.0100956
0.070699
-0.00923469
0.0710492
-0.0084429
0.0713735
-0.00771611
0.0716738
-0.00705292
0.0719521
-0.00644753
0.0722101
-0.00589892
0.0724495
-0.0053998
0.072672
-0.0049506
0.0728791
-0.00454231
0.0730724
-0.00417791
0.0732533
-0.00384597
0.073423
-0.00355339
0.073583
-0.00328489
0.0737341
-0.00305323
0.0738777
-0.00283704
0.0740148
-0.00265778
0.0741462
-0.0024845
0.0742728
-0.00235166
0.0743956
-0.00221341
0.0745153
-0.00212375
0.0746323
-0.00201388
0.074748
-0.00196729
-0.00187977
0.0517511
0.00937222
0.0508896
0.00900679
0.0500821
0.00882063
0.0493813
0.00865076
0.048898
0.00850663
0.0486123
0.00836433
0.04848
0.00821724
0.0484677
0.00805824
0.0485417
0.00786802
0.0486688
0.00762568
0.0488218
0.007316
0.0489812
0.00692945
0.0491352
0.00646119
0.0492795
0.00590859
0.0494153
0.00527376
0.0495498
0.00455734
0.0496942
0.00376381
0.0498593
0.00289582
0.0500645
0.00195036
0.0503216
0.000934602
0.0506694
-0.000147122
0.0510259
-0.00134432
0.0514976
-0.00260719
0.0520449
-0.00396898
0.0526734
-0.00543262
0.0533779
-0.00700353
0.0541471
-0.00868362
0.0549665
-0.0104677
0.0558181
-0.0123427
0.0566818
-0.0142853
0.0575371
-0.0162622
0.0583667
-0.0182287
0.0591569
-0.0201322
0.0598958
-0.0219185
0.0605785
-0.0235331
0.0612061
-0.0249252
0.0617847
-0.0260526
0.0623244
-0.0268859
0.0628378
-0.0274096
0.0633398
-0.0276238
0.0638384
-0.0275372
0.0643327
-0.0271689
0.0648201
-0.026549
0.0652984
-0.0257144
0.0657658
-0.0247052
0.0662215
-0.0235622
0.0666653
-0.0223248
0.0670973
-0.021029
0.0675177
-0.0197065
0.0679267
-0.018384
0.0683242
-0.0170833
0.0687101
-0.0158212
0.0690839
-0.0146107
0.0694453
-0.0134603
0.0697938
-0.0123763
0.070129
-0.0113614
0.0704508
-0.0104173
0.0707591
-0.00954292
0.0710538
-0.00873763
0.0713353
-0.00799758
0.0716038
-0.00732144
0.0718599
-0.0067036
0.072104
-0.00614307
0.0723369
-0.00563272
0.0725593
-0.00517295
0.0727719
-0.00475491
0.0729754
-0.00438148
0.0731708
-0.00404137
0.0733588
-0.00374131
0.0735401
-0.0034662
0.0737154
-0.00322856
0.0738856
-0.00300722
0.0740512
-0.00282338
0.0742129
-0.00264626
0.0743714
-0.00251011
0.0745271
-0.00236911
0.0746806
-0.0022773
0.0748322
-0.00216548
0.0749828
-0.00211784
-0.0020291
0.0796201
0.012528
-0.0827759
0.0764058
0.0122211
0.0735048
0.0117216
0.0709542
0.0112013
0.0687866
0.0106742
0.0669923
0.0101586
0.0655361
0.00967343
0.0643851
0.00920923
0.0635107
0.00874248
0.0628831
0.00825326
0.0624713
0.00772775
0.0622457
0.0071551
0.0621781
0.00652876
0.0622453
0.00584137
0.0624278
0.00509124
0.0627106
0.00427462
0.0630852
0.00338913
0.063541
0.00244004
0.0640807
0.00141067
0.0647297
0.000285655
0.0654317
-0.000849151
0.0662166
-0.00212925
0.0670916
-0.00348215
0.068042
-0.00491941
0.0690626
-0.00645322
0.0701427
-0.0080836
0.0712648
-0.00980574
0.072407
-0.0116099
0.0735436
-0.0134793
0.0746462
-0.0153879
0.0756851
-0.0173011
0.0766322
-0.0191758
0.0774631
-0.0209632
0.0781575
-0.0226128
0.0787003
-0.024076
0.0790835
-0.0253084
0.079305
-0.0262741
0.0793682
-0.026949
0.0792805
-0.0273219
0.0790529
-0.0273962
0.0787025
-0.0271869
0.0782505
-0.0267168
0.0777193
-0.0260179
0.0771324
-0.0251275
0.0765125
-0.0240853
0.0758804
-0.0229301
0.0752539
-0.0216983
0.0746472
-0.0204223
0.074071
-0.0191303
0.0735326
-0.0178456
0.0730362
-0.0165869
0.0725835
-0.0153685
0.0721744
-0.0142015
0.0718072
-0.0130931
0.0714794
-0.0120485
0.0711878
-0.0110698
0.0709291
-0.0101586
0.0706997
-0.00931356
0.0704963
-0.00853418
0.0703156
-0.00781686
0.0701546
-0.00716041
0.0700106
-0.00655961
0.0698811
-0.00601361
0.0697641
-0.00551575
0.0696577
-0.00506649
0.0695602
-0.00465749
0.0694703
-0.00429156
0.0693869
-0.00395799
0.0693089
-0.00366326
0.0692357
-0.00339295
0.0691662
-0.00315913
0.0691004
-0.00294142
0.0690374
-0.00276035
0.0689772
-0.00258609
0.0689191
-0.00245196
0.0688633
-0.00231332
0.068809
-0.00222297
0.0687566
-0.00211308
0.0687051
-0.00206635
-0.00197899
0.0931281
0.0142167
-0.0948168
0.0914757
0.0138735
0.0898132
0.0133841
0.0881672
0.0128473
0.0865675
0.0122739
0.0850443
0.0116818
0.0836281
0.0110897
0.0823425
0.0104948
0.081204
0.009881
0.080223
0.00923426
0.0794049
0.00854589
0.0787495
0.00781046
0.078253
0.00702527
0.0779073
0.00618709
0.0777043
0.0052942
0.077634
0.00434496
0.0776872
0.00333593
0.0778596
0.00226762
0.0781365
0.00113378
0.0784811
-5.8971e-05
0.078966
-0.00133403
0.0795214
-0.00268464
0.0801544
-0.00411516
0.0808546
-0.00561956
0.0816055
-0.00720415
0.0823892
-0.00886732
0.0831843
-0.0106008
0.0839657
-0.0123913
0.0847057
-0.0142193
0.0853754
-0.0160576
0.0859457
-0.0178714
0.0863902
-0.0196203
0.0866863
-0.0212593
0.0868166
-0.0227431
0.0867702
-0.0240296
0.0865441
-0.0250823
0.086143
-0.025873
0.085579
-0.026385
0.084871
-0.0266139
0.0840427
-0.0265679
0.0831216
-0.0262658
0.0821377
-0.0257329
0.0811206
-0.0250008
0.0800974
-0.0241043
0.0790916
-0.0230795
0.078122
-0.0219605
0.0772027
-0.020779
0.0763433
-0.0195629
0.0755492
-0.0183362
0.0748226
-0.0171189
0.0741628
-0.0159271
0.0735677
-0.0147734
0.0730334
-0.0136673
0.0725558
-0.0126154
0.0721298
-0.0116225
0.0717506
-0.0106906
0.0714133
-0.00982133
0.0711133
-0.00901355
0.0708462
-0.00826706
0.070608
-0.00757868
0.0703951
-0.00694748
0.0702042
-0.00636873
0.0700323
-0.00584178
0.0698771
-0.00536051
0.0697361
-0.00492546
0.0696074
-0.00452885
0.0694893
-0.00417346
0.0693805
-0.00384916
0.0692795
-0.00356223
0.0691855
-0.00329892
0.0690972
-0.00307086
0.0690143
-0.00285853
0.0689356
-0.0026817
0.0688612
-0.00251166
0.0687899
-0.00238062
0.0687219
-0.00224534
0.068656
-0.0021571
0.0685928
-0.00204987
0.0685308
-0.00200429
-0.00191856
0.0997328
0.0152428
-0.100759
0.0991353
0.0144711
0.098591
0.0139284
0.0980023
0.013436
0.0973626
0.0129135
0.0966867
0.0123578
0.0959958
0.0117806
0.0953087
0.0111818
0.0946407
0.010549
0.0940056
0.0098694
0.0934177
0.00913383
0.0928887
0.00833943
0.0924303
0.00748365
0.0920492
0.00656824
0.0917518
0.0055915
0.0915415
0.00455526
0.0914181
0.00345943
0.0913827
0.00230301
0.0914156
0.00110082
0.0915235
-0.000166868
0.091728
-0.00153852
0.0919895
-0.00294614
0.0922989
-0.0044246
0.0926477
-0.00596834
0.0930175
-0.00757393
0.0933866
-0.00923643
0.0937316
-0.0109458
0.0940268
-0.0126866
0.0942453
-0.0144378
0.0943602
-0.0161724
0.0943464
-0.0178576
0.0941827
-0.0194566
0.0938536
-0.0209302
0.0933506
-0.0222402
0.0926731
-0.023352
0.0918285
-0.0242377
0.0908325
-0.024877
0.0897077
-0.0252602
0.0884819
-0.0253881
0.0871854
-0.0252714
0.0858487
-0.0249291
0.0845018
-0.024386
0.0831715
-0.0236704
0.0818801
-0.022813
0.0806453
-0.0218446
0.0794796
-0.0207948
0.0783912
-0.0196907
0.0773846
-0.0185563
0.0764611
-0.0174127
0.0756194
-0.0162772
0.0748565
-0.0151643
0.0741683
-0.0140851
0.0735496
-0.0130487
0.0729952
-0.012061
0.0724992
-0.0111265
0.072056
-0.0102475
0.0716604
-0.00942569
0.0713072
-0.00866029
0.0709915
-0.00795138
0.070709
-0.00729624
0.0704558
-0.00669425
0.0702283
-0.00614118
0.0700231
-0.00563664
0.0698376
-0.00517501
0.0696691
-0.00475698
0.0695156
-0.00437534
0.069375
-0.00403282
0.0692457
-0.00371991
0.0691262
-0.00344268
0.0690153
-0.00318809
0.0689118
-0.00296733
0.068815
-0.00276173
0.0687236
-0.00259034
0.0686376
-0.00242556
0.0685554
-0.00229849
0.0684774
-0.00216734
0.0684021
-0.00208179
0.0683299
-0.00197771
0.0682592
-0.00193353
-0.00184991
0.102165
0.0152908
-0.102213
0.102272
0.014364
0.102413
0.0137867
0.102535
0.0133145
0.102611
0.012837
0.102641
0.0123284
0.102631
0.0117908
0.102588
0.0112244
0.102518
0.0106192
0.102423
0.00996398
0.10231
0.00924709
0.102185
0.00846497
0.102055
0.00761327
0.101929
0.00669431
0.101813
0.0057071
0.101715
0.00465371
0.101637
0.00353755
0.101581
0.00235834
0.101551
0.00113076
0.101545
-0.000160577
0.101563
-0.00155664
0.101596
-0.00297911
0.101631
-0.00445892
0.101657
-0.0059945
0.10166
-0.00757725
0.101622
-0.00919812
0.101521
-0.0108454
0.101338
-0.0125029
0.10105
-0.0141496
0.100637
-0.0157598
0.100083
-0.0173038
0.0993762
-0.0187497
0.0985108
-0.0200648
0.0974883
-0.0212177
0.0963175
-0.0221813
0.0950144
-0.0229346
0.093601
-0.0234636
0.0921038
-0.0237631
0.0905518
-0.0238361
0.0889741
-0.0236936
0.0873982
-0.0233532
0.085849
-0.0228368
0.0843477
-0.0221691
0.0829112
-0.0213764
0.0815517
-0.0204852
0.0802777
-0.0195208
0.0790939
-0.0185068
0.0780018
-0.0174643
0.0770008
-0.0164117
0.0760882
-0.0153645
0.0752599
-0.0143359
0.0745109
-0.0133362
0.0738357
-0.0123735
0.0732283
-0.0114536
0.0726829
-0.0105812
0.0721937
-0.00975833
0.0717551
-0.00898708
0.0713619
-0.00826704
0.0710091
-0.00759857
0.0706922
-0.0069794
0.0704072
-0.00640924
0.0701504
-0.00588435
0.0699183
-0.00540458
0.0697082
-0.00496483
0.0695171
-0.00456592
0.0693429
-0.00420119
0.0691835
-0.00387335
0.0690371
-0.0035735
0.0689019
-0.00330749
0.0687768
-0.00306301
0.0686602
-0.00285078
0.0685516
-0.00265304
0.0684493
-0.00248807
0.0683532
-0.00232943
0.0682617
-0.00220703
0.068175
-0.00208067
0.0680915
-0.00199826
0.0680116
-0.00189782
0.0679333
-0.00185527
-0.00177419
0.102429
0.0147306
-0.101869
0.102902
0.0138906
0.103408
0.0132817
0.103932
0.0127901
0.104438
0.0123308
0.104909
0.0118574
0.105344
0.0113558
0.105745
0.0108235
0.106111
0.010253
0.10644
0.00963543
0.106728
0.0089588
0.106975
0.00821762
0.107182
0.0074066
0.107351
0.00652571
0.107483
0.00557511
0.107581
0.00455531
0.107648
0.00347073
0.107684
0.00232168
0.107697
0.00111808
0.107682
-0.000145034
0.107626
-0.00150098
0.107535
-0.00288834
0.107399
-0.00432286
0.107208
-0.00580309
0.10695
-0.00731971
0.106613
-0.00886133
0.106183
-0.0104149
0.105644
-0.0119642
0.104983
-0.013489
0.10419
-0.0149661
0.103255
-0.0163695
0.102177
-0.0176717
0.100958
-0.0188458
0.0996074
-0.0198666
0.0981387
-0.0207126
0.0965718
-0.0213677
0.0949302
-0.021822
0.0932396
-0.0220725
0.0915266
-0.022123
0.0898165