/*--------------------------------*- C++ -*----------------------------------*\
| =========                 |                                                 |
| \\      /  F ield         | OpenFOAM: The Open Source CFD Toolbox           |
|  \\    /   O peration     | Version:  4.1                                   |
|   \\  /    A nd           | Web:      www.OpenFOAM.org                      |
|    \\/     M anipulation  |                                                 |
\*---------------------------------------------------------------------------*/
FoamFile
{
    version     2.0;
    format      ascii;
    class       surfaceScalarField;
    location    "15";
    object      phi;
}
// * * * * * * * * * * * * * * * * * * * * * * * * * * * * * * * * * * * * * //

dimensions      [0 3 -1 0 0 0 0];

internalField   nonuniform List<scalar> 
3890
(
0.000416866
0.00158478
-0.00200165
0.00258613
-0.000901276
-0.00126799
0.0070967
-0.00698541
0.00247484
0.0141304
-0.0153221
0.00828842
0.0233495
-0.0245811
0.0153619
0.0340419
-0.0335962
0.0229038
0.0453823
-0.0415935
0.030253
0.0567626
-0.0482329
0.0368527
0.0676441
-0.0537337
0.0428521
-0.0572677
0.0474334
0.0774784
0.000714884
0.000869899
0.00385513
-0.00404152
0.00993528
-0.0130656
0.0186988
-0.0240856
0.0292085
-0.0350908
0.0403323
-0.0447199
0.0511612
-0.0524223
0.061184
-0.0582557
0.070037
-0.0625867
-0.06554
0.0783093
0.0011177
-0.000247804
0.00540358
-0.0083274
0.0130154
-0.0206774
0.0229462
-0.0340164
0.0336798
-0.0458244
0.0439806
-0.0550207
0.0532
-0.0616418
0.0612013
-0.066257
0.0681961
-0.0695816
-0.0720445
0.0747006
0.00161745
-0.00186525
0.00710719
-0.0138171
0.0158696
-0.0294398
0.0260469
-0.0441937
0.0359043
-0.0556818
0.0445311
-0.0636475
0.0517781
-0.0688887
0.0579491
-0.072428
0.0634672
-0.0750997
-0.0773608
0.0687835
0.00219192
-0.00405717
0.0087447
-0.0203699
0.0179656
-0.0386606
0.0274366
-0.0536647
0.0357037
-0.0639489
0.0424251
-0.0703689
0.0479099
-0.0743735
0.0526642
-0.0771823
0.0571305
-0.079566
-0.081927
0.0616967
0.00278935
-0.00684652
0.010038
-0.0276186
0.0189243
-0.0475469
0.0270257
-0.0617661
0.0334786
-0.0704019
0.0384608
-0.0753511
0.0425208
-0.0784335
0.046178
-0.0808395
0.0497911
-0.0831791
-0.0856742
0.0535384
0.00333007
-0.0101766
0.0107473
-0.0350358
0.0186538
-0.0554534
0.0250955
-0.0682078
0.0298176
-0.075124
0.0333234
-0.0788569
0.0362171
-0.0813272
0.0389345
-0.0835568
0.041707
-0.0859517
-0.0886094
0.0446422
0.00372001
-0.0138966
0.0107518
-0.0420676
0.0172983
-0.062
0.0220569
-0.0729664
0.0252399
-0.078307
0.0274956
-0.0811126
0.029375
-0.0832067
0.0311979
-0.0853797
0.0331028
-0.0878566
-0.090639
0.0351324
0.00388166
-0.0177783
0.0100735
-0.0482594
0.0151128
-0.0670392
0.018299
-0.0761526
0.0201409
-0.0801489
0.0213054
-0.0822771
0.0222427
-0.084144
0.0231681
-0.086305
0.0241496
-0.0888381
-0.0916991
0.0252097
0.003781
-0.0215593
0.00885185
-0.0533302
0.012374
-0.0705614
0.0141416
-0.0779202
0.0148089
-0.0808161
0.0149842
-0.0824524
0.0150088
-0.0841686
0.0150162
-0.0863124
0.0150361
-0.088858
0.0150832
-0.0917461
-0.000548911
0.000548911
-0.00161648
0.00106757
-0.00290706
0.00129058
-0.0042588
0.00135174
-0.00558027
0.00132147
-0.00682171
0.00124144
-0.0079613
0.00113958
-0.00899887
0.00103758
-0.00995553
0.000956653
0.000923232
-0.0108788
-0.000510357
0.00105927
-0.00150028
0.00205749
-0.00269063
0.00248093
-0.00392032
0.00258143
-0.005095
0.00249616
-0.00615879
0.00230523
-0.00708106
0.00206185
-0.00785234
0.00180886
-0.00848398
0.00158828
0.00146774
-0.00902848
-0.000438057
0.00149732
-0.00128439
0.00290382
-0.00228026
0.0034768
-0.0032701
0.00357127
-0.00415594
0.00338199
-0.00487125
0.00302055
-0.0053689
0.0025595
-0.00562186
0.00206181
-0.00562472
0.00159115
0.00122372
-0.00538071
-0.000344892
0.00184222
-0.000993637
0.00355257
-0.00171135
0.00419451
-0.00234784
0.00420776
-0.00280093
0.00383509
-0.00299278
0.0032124
-0.00285558
0.00242229
-0.0023288
0.00153504
-0.00137838
0.000640727
-7.6727e-05
-7.79294e-05
-0.000244802
0.00208702
-0.000658392
0.00396615
-0.0010223
0.00455842
-0.00118622
0.00437167
-0.00103937
0.00368824
-0.000490857
0.00266389
0.00054224
0.00138919
0.00214189
-6.46094e-05
0.00437995
-0.00159734
-0.00306134
0.00736456
-0.000150835
0.00223785
-0.00030457
0.00411989
-0.000240782
0.00449464
0.000205502
0.00392539
0.00116765
0.00272609
0.00275571
0.00107582
0.00506354
-0.00091863
0.00816438
-0.00316546
0.0121064
-0.00553938
-0.00818496
0.01723
-7.17267e-05
0.00230958
5.98623e-05
0.0039883
0.000635741
0.00391876
0.0018644
0.00269673
0.00391598
0.000674513
0.00692523
-0.00193342
0.0109785
-0.0049719
0.0161094
-0.00829639
0.0222292
-0.0116592
-0.015809
0.0298533
5.14123e-06
0.00230444
0.000453051
0.00354039
0.00166771
0.0027041
0.00390776
0.000456679
0.00738529
-0.00280303
0.0122283
-0.00677645
0.0184608
-0.0112044
0.0259838
-0.0158194
0.0345907
-0.0202661
-0.02577
0.0445517
8.76425e-05
0.0022168
0.000946088
0.00268194
0.00298922
0.000660964
0.00654327
-0.00309737
0.0118068
-0.0080666
0.0188003
-0.0137699
0.0273641
-0.0197682
0.0371449
-0.0256002
0.0479377
-0.0310589
-0.036867
0.0590347
0.000215147
0.0016291
0.00476491
0.00995595
0.0172513
0.0263851
0.03687
0.0481225
0.0599157
0.0704821
-0.0112636
0.000384807
-0.0115984
0.000334799
-0.011873
0.000274668
-0.01209
0.000216974
-0.0122526
0.000162559
-0.0123641
0.000111484
-0.0124277
6.36443e-05
-0.012446
1.82738e-05
-0.0124252
-2.0795e-05
-0.0123702
-5.494e-05
-0.0122841
-8.61793e-05
-0.012171
-0.000113062
-0.0120366
-0.000134379
-0.0118877
-0.000148913
-0.0117321
-0.000155586
-0.0115783
-0.000153821
-0.0114342
-0.000144095
-0.0113056
-0.000128576
-0.0111941
-0.000111469
-9.78863e-05
-0.00933035
0.000686667
-0.00958864
0.000593089
-0.0097963
0.000482326
-0.00995624
0.000376919
-0.0100703
0.000276661
-0.0101412
0.000182328
-0.0101716
9.40261e-05
-0.01016
6.65909e-06
-0.0101198
-6.09873e-05
-0.0100486
-0.000126142
-0.00994912
-0.000185631
-0.0098249
-0.000237287
-0.00968032
-0.000278957
-0.00952096
-0.000308276
-0.00935362
-0.000322924
-0.00918623
-0.000321211
-0.00902724
-0.000303082
-0.00888422
-0.000271593
-0.00876096
-0.000234728
-0.000204948
-0.00554602
0.000851979
-0.00565227
0.000699343
-0.00573554
0.000565593
-0.00578598
0.000427364
-0.00580467
0.000295354
-0.00579414
0.000171791
-0.005753
5.28946e-05
-0.00569308
-5.32616e-05
-0.00560712
-0.000146952
-0.00549762
-0.000235638
-0.00536655
-0.000316698
-0.00521588
-0.000387963
-0.0050481
-0.000446737
-0.00486657
-0.000489802
-0.00467584
-0.00051365
-0.00448203
-0.000515026
-0.00429308
-0.000492035
-0.0041186
-0.000446071
-0.00396716
-0.000386169
-0.000334247
0.000128504
0.000645545
0.0001765
0.000651345
0.000247785
0.000494307
0.000343331
0.000331818
0.000452981
0.000185703
0.00058011
4.46619e-05
0.000711056
-7.8053e-05
0.000850479
-0.000192684
0.00100609
-0.000302567
0.00117576
-0.000405302
0.00135855
-0.000499494
0.00155365
-0.000583064
0.0017601
-0.000653181
0.00197659
-0.000706296
0.00220126
-0.000738317
0.00243105
-0.000744815
0.00266091
-0.000721892
0.0028821
-0.00066726
0.00308161
-0.000585688
-0.000503035
0.00769313
0.00031698
0.00796163
0.000382849
0.00821645
0.000239485
0.00848096
6.73058e-05
0.00873746
-7.07965e-05
0.00897294
-0.000190813
0.00920739
-0.000312512
0.00944683
-0.000432116
0.0096906
-0.000546341
0.00993868
-0.000653377
0.0101909
-0.00075173
0.0104472
-0.000839305
0.0107073
-0.000913286
0.0109711
-0.0009701
0.0112385
-0.0010058
0.0115094
-0.00101565
0.0117828
-0.000995313
0.0120551
-0.000939521
0.012317
-0.000847662
-0.000733258
0.0177002
-0.000153202
0.018111
-2.7954e-05
0.0184944
-0.000143867
0.0188556
-0.000293911
0.0192041
-0.000419268
0.0195445
-0.000531218
0.0198782
-0.000646248
0.0202094
-0.000763317
0.0205394
-0.000876368
0.0208681
-0.000982076
0.0211952
-0.00107882
0.0215203
-0.00116435
0.0218429
-0.00123589
0.0221626
-0.0012898
0.0224798
-0.00132298
0.0227948
-0.00133066
0.02311
-0.00131053
0.0234254
-0.00125497
0.0237461
-0.00116833
-0.00102596
0.0303368
-0.000636741
0.0307156
-0.000406758
0.0311141
-0.00054234
0.0315284
-0.000708189
0.0319368
-0.000827667
0.0323399
-0.000934375
0.0327444
-0.00105072
0.0331513
-0.00117028
0.0335588
-0.00128386
0.0339648
-0.00138806
0.0343677
-0.0014817
0.0347655
-0.00156219
0.0351569
-0.00162722
0.03554
-0.00167288
0.0359151
-0.00169813
0.0362813
-0.00169689
0.0366437
-0.00167287
0.0369992
-0.00161054
0.0373695
-0.0015386
-0.00137733
0.0448285
-0.000913467
0.0451432
-0.000721538
0.045529
-0.000928133
0.0459491
-0.0011282
0.0463851
-0.00126374
0.0468418
-0.00139106
0.0473188
-0.00152772
0.0478082
-0.00165966
0.0483029
-0.00177855
0.048798
-0.00188322
0.0492901
-0.00197374
0.0497751
-0.00204717
0.0502508
-0.00210294
0.0507141
-0.00213617
0.0511661
-0.00215021
0.0516037
-0.00213446
0.0520355
-0.00210464
0.052453
-0.00202806
0.0528847
-0.00197034
-0.00180068
0.0591648
-0.00104356
0.059575
-0.00113168
0.0600933
-0.00144651
0.060627
-0.00166183
0.0611843
-0.00182109
0.0617725
-0.00197926
0.0623789
-0.00213413
0.0629916
-0.00227233
0.0636053
-0.00239221
0.0642163
-0.00249425
0.0648221
-0.00257958
0.0654193
-0.00264431
0.0660072
-0.00269084
0.0665827
-0.00271168
0.0671491
-0.00271659
0.0677017
-0.00268708
0.0682512
-0.00265418
0.0687883
-0.00256514
0.0693355
-0.00251754
-0.0023524
0.071199
-0.0017605
0.0721343
-0.00206697
0.0729409
-0.00225308
0.0737127
-0.00243365
0.074486
-0.00259435
0.0752543
-0.00274755
0.0760132
-0.00289306
0.0767653
-0.00302442
0.0775143
-0.00314124
0.0782615
-0.00324146
0.0790087
-0.00332676
0.0797555
-0.00339112
0.0805044
-0.00343968
0.0812534
-0.00346071
0.0820069
-0.00347006
0.082761
-0.00344118
0.0835234
-0.00341664
0.0842892
-0.00333097
0.085066
-0.0032943
-0.00314311
0.0975998
-0.000990588
-0.0983698
0.096821
-0.00128816
0.0961444
-0.0015765
0.0955501
-0.00183934
0.095031
-0.00207523
0.0945707
-0.00228723
0.0941538
-0.00247613
0.0937693
-0.00264
0.0934109
-0.00278284
0.0930728
-0.00290329
0.0927512
-0.0030052
0.0924427
-0.00308259
0.0921465
-0.00314354
0.0918611
-0.00317529
0.091588
-0.00319692
0.0913272
-0.00318036
0.0910805
-0.00316995
0.090852
-0.00310251
0.0906364
-0.00307874
-0.00295383
0.105862
-0.000698768
-0.106154
0.105528
-0.00095339
0.10516
-0.00120872
0.104789
-0.00146843
0.104428
-0.00171408
0.104076
-0.00193546
0.103732
-0.0021324
0.103397
-0.00230478
0.103071
-0.00245641
0.102752
-0.00258492
0.102442
-0.00269492
0.102139
-0.00277985
0.101845
-0.00284909
0.101559
-0.00288929
0.101282
-0.00292052
0.101017
-0.00291512
0.100763
-0.00291568
0.100524
-0.0028641
0.100295
-0.00284955
-0.00274979
0.112324
-0.000398877
-0.112624
0.112081
-0.000709732
0.111852
-0.000979797
0.111622
-0.00123864
0.111391
-0.00148302
0.111159
-0.00170381
0.110927
-0.00190011
0.110694
-0.0020715
0.11046
-0.00222237
0.110225
-0.00235011
0.10999
-0.00246032
0.109756
-0.00254598
0.109525
-0.00261745
0.109296
-0.00266081
0.109072
-0.00269677
0.108855
-0.00269781
0.108645
-0.00270519
0.108445
-0.00266398
0.108251
-0.00265607
-0.00257101
0.118084
-0.000177677
-0.118305
0.117907
-0.00053266
0.117753
-0.000826094
0.1176
-0.00108571
0.117443
-0.00132555
0.117282
-0.00154314
0.117119
-0.00173739
0.116954
-0.00190624
0.116786
-0.00205441
0.116615
-0.00217915
0.116442
-0.00228726
0.116267
-0.00237117
0.116092
-0.00244247
0.115918
-0.00248626
0.115745
-0.00252448
0.115576
-0.00252866
0.115411
-0.00254044
0.115253
-0.00250523
0.115099
-0.00250191
-0.00242498
0.123779
-5.38525e-05
-0.123903
0.123663
-0.000417135
0.123556
-0.000718959
0.123448
-0.000977759
0.123334
-0.00121161
0.123214
-0.00142318
0.12309
-0.00161293
0.122961
-0.00177759
0.122829
-0.0019219
0.122692
-0.00204256
0.122552
-0.00214755
0.12241
-0.00222861
0.122266
-0.00229864
0.122121
-0.00234154
0.121978
-0.0023807
0.121835
-0.00238626
0.121696
-0.00240091
0.12156
-0.00236929
0.121427
-0.0023692
-0.00229798
0.129821
2.10481e-05
-0.129896
0.129734
-0.000329589
0.129642
-0.000627004
0.129547
-0.00088282
0.129446
-0.00111062
0.129338
-0.00131468
0.129223
-0.00149789
0.129102
-0.00165683
0.128976
-0.00179631
0.128846
-0.00191229
0.128712
-0.00201354
0.128575
-0.00209122
0.128435
-0.00215929
0.128294
-0.00220074
0.128154
-0.00223996
0.128014
-0.0022462
0.127875
-0.00226261
0.12774
-0.00223381
0.127607
-0.00223595
-0.00216993
0.136257
9.27252e-05
-0.136328
0.136162
-0.000235143
0.136059
-0.000523347
0.135949
-0.000773639
0.135834
-0.000994881
0.13571
-0.00119101
0.135579
-0.00136673
0.135441
-0.00151922
0.135298
-0.0016534
0.135151
-0.00176472
0.134999
-0.00186212
0.134845
-0.00193662
0.134688
-0.00200248
0.13453
-0.00204273
0.134371
-0.00208158
0.134214
-0.00208884
0.134058
-0.00210632
0.133905
-0.00208088
0.133753
-0.00208454
-0.00202459
0.142796
0.000188211
-0.142892
0.142678
-0.000117289
0.142548
-0.000393472
0.142411
-0.000635786
0.142265
-0.000849458
0.142112
-0.00103743
0.14195
-0.00120528
0.141782
-0.00135112
0.141609
-0.00147989
0.141431
-0.00158694
0.141249
-0.00168074
0.141066
-0.00175278
0.14088
-0.00181665
0.140694
-0.00185659
0.140507
-0.00189509
0.140323
-0.00190445
0.140139
-0.00192279
0.13996
-0.00190209
0.139783
-0.0019069
-0.00185485
0.148972
0.000306339
-0.149091
0.148833
2.23988e-05
0.14868
-0.000240388
0.148517
-0.000472729
0.148344
-0.000677369
0.148164
-0.000856571
0.147975
-0.00101619
0.147779
-0.00115533
0.147577
-0.00127861
0.147372
-0.00138184
0.147164
-0.00147233
0.146954
-0.00154276
0.146742
-0.001605
0.146531
-0.00164571
0.14632
-0.00168413
0.146113
-0.00169691
0.145906
-0.00171617
0.145706
-0.00170181
0.145507
-0.00170769
-0.00166549
0.15433
0.00042528
-0.154449
0.154192
0.000160807
0.154037
-8.56898e-05
0.153871
-0.000306722
0.153694
-0.000500283
0.153507
-0.000669488
0.153311
-0.000820168
0.153108
-0.000952258
0.152899
-0.00106969
0.152686
-0.0011691
0.15247
-0.00125625
0.152253
-0.00132549
0.152034
-0.00138628
0.151817
-0.0014284
0.151599
-0.00146692
0.151386
-0.00148393
0.151174
-0.00150422
0.15097
-0.00149717
0.150766
-0.00150411
-0.00147284
0.158664
0.000505514
-0.158745
0.158564
0.000261767
0.158445
3.28623e-05
0.158312
-0.000173398
0.158165
-0.000353513
0.158006
-0.000510905
0.157837
-0.000651282
0.15766
-0.000775176
0.157476
-0.000885747
0.157288
-0.000980441
0.157095
-0.00106356
0.156901
-0.00113104
0.156704
-0.00118995
0.156509
-0.00123308
0.156313
-0.00127139
0.156122
-0.00129224
0.155931
-0.00131337
0.155747
-0.00131317
0.155564
-0.00132108
-0.00130005
0.162229
0.000505161
-0.162229
0.162205
0.000285608
0.162161
7.71332e-05
0.162097
-0.000109833
0.162017
-0.000273486
0.161923
-0.000416551
0.161816
-0.000544491
0.161699
-0.000658023
0.161573
-0.000759823
0.16144
-0.000847773
0.161302
-0.000925256
0.16116
-0.000989124
0.161015
-0.00104487
0.160869
-0.00108718
0.160722
-0.00112429
0.160577
-0.001147
0.160432
-0.00116829
0.160291
-0.00117267
0.160151
-0.00118123
-0.00116765
0.165806
0.000402201
-0.165703
0.16588
0.000211916
0.165928
2.9312e-05
0.165952
-0.000134576
0.165957
-0.000278307
0.165945
-0.00040413
0.165917
-0.000516986
0.165877
-0.000617273
0.165825
-0.000707739
0.165763
-0.000786078
0.165693
-0.000855627
0.165617
-0.000913079
0.165536
-0.000963708
0.165451
-0.00100233
0.165363
-0.00103663
0.165275
-0.00105815
0.165185
-0.00107843
0.165096
-0.00108391
0.165007
-0.00109255
-0.00108232
0.170483
0.000218453
-0.170299
0.170633
6.16288e-05
0.170753
-9.07784e-05
0.170847
-0.000228329
0.170919
-0.000349879
0.170971
-0.000456125
0.171005
-0.000551734
0.171024
-0.000636311
0.17103
-0.00071322
0.171023
-0.000779384
0.171007
-0.000838912
0.170981
-0.000887356
0.170948
-0.000931002
0.170909
-0.000963259
0.170866
-0.000993172
0.170818
-0.00101062
0.170768
-0.00102871
0.170717
-0.00103211
0.170664
-0.00104018
-0.00102963
0.177084
1.97364e-05
-0.176886
0.177249
-0.000103444
0.177383
-0.000224607
0.17749
-0.000335354
0.177575
-0.000434519
0.17764
-0.000520884
0.177687
-0.000598864
0.177718
-0.000667086
0.177734
-0.000729769
0.177738
-0.000782863
0.17773
-0.000831584
0.177713
-0.000869994
0.177688
-0.000905847
0.177655
-0.000930603
0.177617
-0.00095534
0.177574
-0.000967462
0.177528
-0.000982684
0.177479
-0.000982625
0.177428
-0.000989665
-0.000977332
0.185533
-0.000122486
-0.185391
0.185645
-0.000215628
0.185729
-0.000308364
0.185788
-0.000394488
0.185827
-0.000472937
0.185847
-0.000541014
0.185851
-0.000602715
0.185839
-0.000655859
0.185815
-0.000705254
0.185778
-0.000746229
0.185731
-0.000784737
0.185675
-0.000813882
0.185612
-0.000842286
0.185541
-0.000860231
0.185466
-0.00087991
0.185386
-0.000887394
0.185303
-0.000899656
0.185217
-0.000896936
0.18513
-0.000902755
-0.000889634
0.194715
-0.000178473
-0.194659
0.194746
-0.000246014
0.194751
-0.00031398
0.194734
-0.000377824
0.194698
-0.000436955
0.194646
-0.000488203
0.194578
-0.000534863
0.194496
-0.000574434
0.194403
-0.000611584
0.194298
-0.000641802
0.194184
-0.000670848
0.194063
-0.000692038
0.193934
-0.000713517
0.1938
-0.00072603
0.193661
-0.000740956
0.193519
-0.000745322
0.193374
-0.000754702
0.193228
-0.000751079
0.193081
-0.000755602
-0.000743818
0.203101
-0.00016175
-0.203118
0.203062
-0.00020681
0.202999
-0.000251802
0.202916
-0.000294046
0.202812
-0.000333685
0.202692
-0.000368105
0.202557
-0.000399593
0.202409
-0.000426
0.202248
-0.000450951
0.202077
-0.000470976
0.201897
-0.00049053
0.201709
-0.000504456
0.201515
-0.000518941
0.201316
-0.000526933
0.201112
-0.000537008
0.200906
-0.000539409
0.200697
-0.000545767
0.200488
-0.000542658
0.200278
-0.000545739
-0.00053703
0.209448
-9.35362e-05
-0.209516
0.209359
-0.000118216
0.209248
-0.000140857
0.209116
-0.000161626
0.208963
-0.000181263
0.208794
-0.000198426
0.208608
-0.000214137
0.208409
-0.000227314
0.208198
-0.000239735
0.207977
-0.00024974
0.207746
-0.000259452
0.207508
-0.000266422
0.207262
-0.000273549
0.207013
-0.000277561
0.206758
-0.000282417
0.206503
-0.000283667
0.206244
-0.000286585
0.205986
-0.000285138
0.205727
-0.000286326
-0.000281885
0.212892
-0.212985
0.212774
0.212633
0.212471
0.21229
0.212091
0.211877
0.21165
0.21141
0.21116
0.210901
0.210635
0.210361
0.210084
0.209801
0.209517
0.209231
0.208946
0.208659
0.0960751
0.0140123
-0.0950042
0.0971153
0.0241694
0.098155
0.0340928
0.0991616
0.0436355
0.100181
0.0525192
0.101139
0.0607389
0.101829
0.0680934
0.102496
0.0740334
0.100568
0.0802368
0.0796771
0.0997925
0.0130907
-0.0988709
0.100722
0.0232397
0.101702
0.0331129
0.102721
0.0426162
0.103721
0.0515192
0.104895
0.0595651
0.105667
0.0673219
0.107015
0.0726854
0.107156
0.0800961
0.0806785
0.103897
0.0123063
-0.103113
0.104754
0.0223826
0.105664
0.0322033
0.106705
0.0415747
0.107667
0.0505579
0.108937
0.0582948
0.109907
0.066352
0.111259
0.0713334
0.112497
0.0788578
0.0805514
0.108164
0.0116212
-0.107479
0.109007
0.0215392
0.109919
0.031292
0.11103
0.0404632
0.11208
0.0495077
0.113378
0.0569974
0.114604
0.0651258
0.115821
0.0701166
0.117384
0.0772948
0.0796302
0.11235
0.0109914
-0.111721
0.113229
0.0206601
0.114244
0.0302769
0.115489
0.0392186
0.116773
0.0482233
0.118164
0.0556065
0.119646
0.0636445
0.120938
0.068824
0.122561
0.0756715
0.078289
0.1162
0.0103718
-0.11558
0.117153
0.0197071
0.118353
0.029077
0.119803
0.0377678
0.121418
0.0466086
0.123076
0.0539489
0.124879
0.0618408
0.126511
0.0671926
0.128292
0.0738901
0.0766848
0.119479
0.00972453
-0.118832
0.120539
0.0186472
0.121965
0.0276511
0.123692
0.0360406
0.125692
0.0446086
0.127784
0.0518568
0.130037
0.0595878
0.132188
0.0650418
0.134377
0.0717017
0.074733
0.122055
0.00902617
-0.121357
0.123243
0.0174589
0.124899
0.0259955
0.126937
0.0340021
0.129343
0.0422032
0.131946
0.0492533
0.134758
0.0567756
0.137534
0.0622667
0.140377
0.0688582
0.0722184
0.12396
0.00826576
-0.1232
0.125277
0.0161424
0.127135
0.0241373
0.129461
0.0316758
0.132244
0.0394207
0.135331
0.0461668
0.138734
0.0533723
0.142169
0.0588314
0.145808
0.0652189
0.0689362
0.125443
0.00744332
-0.124621
0.126863
0.0147228
0.128871
0.0221292
0.131407
0.0291402
0.134482
0.0363451
0.137943
0.042706
0.141861
0.0494547
0.145899
0.0547933
0.150308
0.0608095
0.0647954
0.126972
0.00656226
-0.126091
0.128448
0.0132463
0.130536
0.0200422
0.133174
0.0265021
0.136415
0.033104
0.140096
0.0390251
0.144351
0.0451993
0.148836
0.0503082
0.153826
0.0558197
0.0598768
0.129156
0.0056567
-0.128251
0.130638
0.0117649
0.132732
0.0179483
0.135374
0.0238597
0.138647
0.029831
0.142394
0.0352776
0.146771
0.0408231
0.15149
0.0455886
0.156776
0.0505343
0.0544238
0.132565
0.00477291
-0.131681
0.134008
0.010322
0.136058
0.015898
0.138652
0.0212653
0.141871
0.0266119
0.14559
0.0315587
0.149926
0.0364875
0.154696
0.0408183
0.160021
0.0452093
0.0487417
0.137441
0.00395972
-0.136628
0.138828
0.00893456
0.14083
0.0138963
0.143395
0.0187004
0.14657
0.0234373
0.150272
0.027856
0.154551
0.0322093
0.159314
0.036055
0.164588
0.0399354
0.0430304
0.143476
0.0032415
-0.142758
0.144829
0.00758173
0.146831
0.0118941
0.149451
0.0160807
0.15269
0.0201985
0.156498
0.0240473
0.160866
0.0278413
0.165739
0.0311827
0.171101
0.0345726
0.0372462
0.149851
0.00259647
-0.149206
0.151222
0.00621076
0.153309
0.00980749
0.156092
0.0132967
0.159547
0.0167438
0.163631
0.0199636
0.168315
0.0231572
0.173525
0.0259724
0.179263
0.0288344
0.0311188
0.155631
0.0019657
-0.155
0.157079
0.00476287
0.159325
0.00756181
0.162351
0.0102701
0.166132
0.0129637
0.170613
0.015482
0.175781
0.0179898
0.181528
0.0202252
0.187884
0.022478
0.0243438
0.160274
0.00130654
-0.159615
0.161821
0.00321619
0.164243
0.00513893
0.167519
0.00699433
0.171634
0.00884877
0.176528
0.0105885
0.182198
0.0123191
0.188535
0.0138887
0.195567
0.0154456
0.0167934
0.163673
0.000642125
-0.163008
0.165278
0.00161118
0.167823
0.00259327
0.171279
0.00353845
0.175643
0.00448537
0.180854
0.00537672
0.186913
0.00626074
0.193727
0.00707418
0.201303
0.00786983
0.00858063
0.165595
-0.164953
0.167206
0.169799
0.173338
0.177823
0.1832
0.189461
0.196535
0.204405
0.0445631
0.0537342
-0.0474089
-0.0508884
0.0382742
0.0523545
-0.0460656
0.0324077
0.0514684
-0.0456019
0.0268661
0.051168
-0.0456264
0.0215283
0.051356
-0.0460182
0.0163238
0.0520197
-0.0468152
0.0112295
0.0530544
-0.0479601
0.00635363
0.05337
-0.0484941
0.00218567
0.0487285
-0.0445605
0.0284022
-0.0262165
0.0428343
0.06006
-0.0491601
0.0366835
0.0585052
0.0308497
0.0573022
0.0253626
0.0566551
0.0201383
0.0565804
0.0150891
0.0570689
0.0101917
0.0579518
0.00558867
0.057973
0.00180579
0.0525114
0.0302079
0.0402125
0.0661026
-0.0462551
0.0343126
0.0644051
0.0286561
0.0629586
0.023316
0.0619953
0.0182646
0.0616317
0.013434
0.0618995
0.00881481
0.062571
0.00459067
0.0621971
0.00131825
0.0557838
0.0315262
0.0364732
0.0718075
-0.0421781
0.0309597
0.0699186
0.0256506
0.0682677
0.0206122
0.0670337
0.015851
0.0663929
0.011332
0.0664185
0.00708568
0.0668173
0.00335749
0.0659253
0.000720489
0.0584208
0.0322467
0.0316649
0.0770799
-0.0369373
0.0266247
0.0749589
0.021793
0.0730994
0.0172016
0.0716251
0.0128625
0.0707319
0.00876804
0.070513
0.0049915
0.0705938
0.00188325
0.0690336
-1.97277e-05
0.0603238
0.032227
0.0257823
0.0817548
-0.0304572
0.0213478
0.0793933
0.0171189
0.0773283
0.0131002
0.0756439
0.00930152
0.0745306
0.00574403
0.0740705
0.00254852
0.0737893
5.82176e-05
0.0715239
-0.000709488
0.0610915
0.0315175
0.0189336
0.0856714
-0.0228502
0.0152289
0.083098
0.0117095
0.0808477
0.00836928
0.078984
0.00521601
0.0776839
0.00230899
0.0769775
-0.000143109
0.0762414
-0.00158593
0.0729667
-0.00145449
0.06096
0.030063
0.011241
0.0886928
-0.0142624
0.00837635
0.0859627
0.00566371
0.0835604
0.00309611
0.0815517
0.000684218
0.0800958
-0.00147081
0.0791325
-0.00304896
0.0778196
-0.00347905
0.0733968
-0.00219511
0.0596761
0.0278679
0.00287133
0.0907642
-0.00494274
0.00093736
0.0878967
-0.00089022
0.0853879
-0.00263676
0.0832982
-0.00424938
0.0817084
-0.00555775
0.0804409
-0.00616417
0.078426
-0.00540906
0.0726417
-0.0028783
0.0571453
0.0249896
-0.00595582
0.00497391
-0.00691721
-0.00784173
-0.00871217
-0.00945617
-0.00983144
-0.00932566
-0.00724538
-0.00343031
0.0337279
0.00317709
-0.036905
0.030424
0.00330392
0.0269726
0.0034514
0.0233522
0.00362043
0.0195333
0.00381885
0.0154803
0.00405306
0.0111699
0.00431035
0.00668323
0.00448671
0.00248309
0.00420014
0.00248309
0.0343376
0.0064897
-0.0376502
0.0309139
0.00672763
0.0273581
0.00700719
0.0236484
0.00733014
0.0197549
0.00771238
0.0156405
0.00816741
0.0112789
0.00867196
0.00674721
0.0090184
0.00251444
0.0084329
0.00499753
0.0354945
0.0100602
-0.039065
0.0318425
0.0103797
0.0280873
0.0107624
0.0242066
0.0112109
0.0201694
0.0117495
0.0159372
0.0123997
0.0114803
0.0131289
0.0068696
0.0136291
0.00256421
0.0127383
0.00756174
0.0370785
0.0139832
-0.0410015
0.0331126
0.0143456
0.0290819
0.0147931
0.0249644
0.0153285
0.0207285
0.0159854
0.0163336
0.0167946
0.0117457
0.0177168
0.00702737
0.0183474
0.00262864
0.017137
0.0101904
0.038924
0.0183175
-0.0432583
0.034588
0.0186816
0.0302307
0.0191504
0.0258325
0.0197266
0.0213618
0.0204561
0.0167753
0.021381
0.0120345
0.0224576
0.00719385
0.023188
0.00269437
0.0216365
0.0128847
0.0408468
0.0230806
-0.04561
0.0361144
0.0234141
0.0314041
0.0238607
0.0267035
0.0244273
0.0219817
0.0251779
0.0171931
0.0261696
0.0122948
0.0273558
0.00733441
0.0281485
0.0027451
0.0262258
0.0156298
0.0426257
0.0282838
-0.0478289
0.037495
0.0285448
0.0324422
0.0289135
0.0274559
0.0294135
0.0224969
0.0301368
0.0175169
0.0311497
0.0124736
0.0323991
0.00741278
0.0332093
0.00276365
0.0308749
0.0183935
0.0441557
0.0339089
-0.0497808
0.0386085
0.034092
0.0332212
0.0343007
0.0279726
0.0346621
0.0228053
0.0353042
0.0176657
0.0362892
0.0125117
0.0375531
0.00739039
0.0383306
0.00273227
0.0355331
0.0211258
0.0449697
0.040076
-0.0511368
0.0390936
0.0399681
0.0335188
0.0398755
0.0281052
0.0400758
0.0227936
0.0406157
0.017552
0.0415309
0.012345
0.0427602
0.00722623
0.0434494
0.0026333
0.040126
0.0237591
0.0451979
-0.0525308
0.0391004
0.033374
0.0278234
0.0224209
0.0171366
0.0119367
0.00689195
0.00245741
0.0405537
-0.000108546
0.040662
-0.000108322
0.0407671
-0.000105044
0.0408645
-9.74514e-05
0.0409508
-8.62449e-05
0.0410224
-7.15919e-05
0.0410754
-5.30621e-05
0.0411053
-2.99049e-05
0.0411053
5.13255e-08
0.0410747
3.05933e-05
0.0410058
6.88724e-05
0.0408912
0.000114575
0.0407225
0.000168735
0.0404897
0.000232778
0.0401812
0.000308484
0.0397832
0.00039801
0.0392791
0.000504119
0.0386491
0.000629996
0.0378692
0.000779944
0.000964159
0.0414408
-0.000218874
0.0415481
-0.000215673
0.0416506
-0.000207524
0.041745
-0.000191818
0.041828
-0.000169287
0.0418962
-0.000139791
0.0419456
-0.000102399
0.0419713
-5.56333e-05
0.0419677
3.60315e-06
0.0419323
6.59918e-05
0.0418579
0.000143296
0.0417369
0.000235548
0.0415608
0.000344851
0.0413195
0.000474055
0.0410013
0.000626737
0.0405921
0.000807202
0.0400752
0.00102103
0.0394307
0.00127448
0.0386346
0.00157609
0.00194849
0.0431842
-0.000319123
0.0432826
-0.000314097
0.0433766
-0.000301498
0.0434624
-0.000277586
0.0435365
-0.000243374
0.0435952
-0.000198582
0.0436346
-0.000141743
0.0436494
-7.04465e-05
0.0436359
1.7154e-05
0.0435884
0.000113428
0.0435005
0.000231167
0.0433645
0.000371556
0.0431716
0.000537817
0.0429114
0.000734253
0.0425718
0.00096627
0.0421387
0.0012403
0.0415949
0.00156483
0.0409203
0.0019491
0.0400913
0.00240514
0.00297471
0.045719
-0.000399243
0.0457971
-0.000392191
0.045871
-0.000375388
0.0459368
-0.000343373
0.0459906
-0.000297198
0.0460285
-0.000236531
0.0460462
-0.000159429
0.0460384
-6.26757e-05
0.0460034
5.22474e-05
0.045932
0.000184807
0.0458182
0.00034499
0.0456541
0.000535638
0.0454306
0.000761236
0.0451373
0.00102764
0.0447614
0.00134211
0.0442884
0.00171329
0.0437007
0.00215255
0.0429772
0.00267264
0.0420962
0.00328611
0.00406945
0.0489563
-0.000441279
0.048996
-0.000431933
0.0490314
-0.000410796
0.0490587
-0.000370702
0.049074
-0.000312453
0.0490731
-0.000235628
0.0490515
-0.000137845
0.0490014
-1.25467e-05
0.0489262
0.000127481
0.0488121
0.000298824
0.0486535
0.000503629
0.0484423
0.000746823
0.0481692
0.00103431
0.0478231
0.00137379
0.0473911
0.00177407
0.0468578
0.00224665
0.0462055
0.0028048
0.0454105
0.0034677
0.0444557
0.00424085
0.00526685
0.0527912
-0.000419838
0.052767
-0.000407707
0.0527375
-0.000381317
0.0526996
-0.000332816
0.0526494
-0.000262235
0.0525822
-0.000168482
0.0524924
-4.8037e-05
0.0523828
9.70948e-05
0.0522386
0.000271637
0.0520553
0.000482204
0.0518258
0.000733062
0.0515417
0.00103096
0.0511935
0.00138248
0.0507691
0.0017982
0.0502558
0.00228736
0.0496357
0.00286679
0.0488928
0.00354771
0.0479973
0.00436316
0.0469443
0.00529384
0.00660118
0.0571139
-0.000301738
0.0569917
-0.000285525
0.0568625
-0.000252025
0.0567245
-0.0001949
0.056575
-0.000112737
0.0564066
5.73761e-09
0.0562221
0.000136371
0.0560105
0.000308728
0.055765
0.000517173
0.0554794
0.00076782
0.0551468
0.00106562
0.0547577
0.00142006
0.0543034
0.00183673
0.05377
0.00233165
0.0531471
0.00291021
0.0524117
0.00360229
0.0515518
0.00440757
0.0505185
0.00539644
0.0493223
0.00649008
0.00809454
0.061822
-4.10618e-05
0.0615573
-2.07529e-05
0.0612842
2.10863e-05
0.0610031
8.61137e-05
0.0607123
0.000178119
0.0604095
0.000302828
0.0600837
0.000462133
0.059731
0.000661478
0.0593451
0.000902989
0.0589185
0.00119442
0.058445
0.00153921
0.0579128
0.00195226
0.0573154
0.00243405
0.0566338
0.00301329
0.0558647
0.00367928
0.0549729
0.00449411
0.0539718
0.0054087
0.0527817
0.00658648
0.0514635
0.00780832
0.00977725
0.0668297
0.00041636
0.0663657
0.000443256
0.0658965
0.000490297
0.0654264
0.000556219
0.0649516
0.000652924
0.064464
0.000790424
0.0639558
0.000970357
0.0634204
0.00119686
0.0628533
0.00147005
0.0622457
0.00180207
0.061593
0.00219187
0.0608803
0.002665
0.0601063
0.00320805
0.0592416
0.00387792
0.0582982
0.0046227
0.0572078
0.00558454
0.0560284
0.00658807
0.0545873
0.00802758
0.0531072
0.00928843
0.0117476
0.0720808
0.00116823
0.0713451
0.00117896
0.0706278
0.00120759
0.0699246
0.00125938
0.069223
0.00135454
0.068509
0.00150439
0.0677751
0.00170425
0.0670155
0.00195648
0.0662281
0.00225742
0.0654036
0.00262663
0.0645401
0.00305536
0.06362
0.00358513
0.0626504
0.00417764
0.061595
0.00493331
0.0604925
0.00572524
0.0592477
0.00682925
0.0580076
0.00782825
0.0564446
0.00959059
0.0550461
0.0106869
0.014263
0.0716562
0.00124122
0.0716282
0.00120701
0.0716413
0.00119447
0.0716838
0.00121685
0.0717385