/*--------------------------------*- C++ -*----------------------------------*\
| =========                 |                                                 |
| \\      /  F ield         | OpenFOAM: The Open Source CFD Toolbox           |
|  \\    /   O peration     | Version:  4.1                                   |
|   \\  /    A nd           | Web:      www.OpenFOAM.org                      |
|    \\/     M anipulation  |                                                 |
\*---------------------------------------------------------------------------*/
FoamFile
{
    version     2.0;
    format      ascii;
    class       volVectorField;
    location    "15";
    object      U;
}
// * * * * * * * * * * * * * * * * * * * * * * * * * * * * * * * * * * * * * //

dimensions      [0 1 -1 0 0 0 0];

internalField   nonuniform List<vector> 
2000
(
(-0.0275615 0.0249668 1.94732e-20)
(0.00947175 0.0218159 0)
(0.124101 0.00501777 2.79576e-20)
(0.297481 -0.0142327 1.18034e-20)
(0.508514 -0.0288129 -2.19133e-20)
(0.732073 -0.0365378 -2.76372e-20)
(0.947281 -0.0371043 8.63758e-21)
(1.13446 -0.0356646 0)
(1.30823 -0.0264925 -6.32265e-21)
(1.41211 -0.0234102 0)
(-0.0198201 0.017271 -9.58107e-21)
(0.0572061 0.000820605 7.81823e-21)
(0.231152 -0.0192353 -3.17438e-20)
(0.467529 -0.0339651 -4.00072e-20)
(0.726968 -0.0392329 -8.45545e-22)
(0.973707 -0.0363888 8.90756e-21)
(1.18562 -0.0286628 -9.19063e-21)
(1.35466 -0.02097 -7.37638e-21)
(1.48784 -0.0105901 6.3224e-21)
(1.56439 -0.0125643 1.02852e-20)
(-0.00474476 0.00784903 1.11402e-20)
(0.128348 -0.0208746 -1.04346e-20)
(0.373322 -0.03846 1.60406e-20)
(0.668556 -0.0425516 -1.3779e-21)
(0.954833 -0.0355976 1.18158e-20)
(1.1953 -0.0233159 1.01279e-20)
(1.37876 -0.0107497 8.654e-21)
(1.51032 -0.00145757 7.37628e-21)
(1.60374 0.00565993 5.96697e-21)
(1.6692 0.00412845 -4.88545e-21)
(0.0200642 -0.00275084 -6.81825e-22)
(0.225967 -0.0397695 -1.18017e-20)
(0.545283 -0.0472581 0)
(0.880315 -0.0366333 1.35552e-20)
(1.16337 -0.018746 -1.40422e-20)
(1.37228 -0.00147609 0)
(1.51464 0.0112356 0)
(1.60935 0.0181564 0)
(1.67814 0.0221944 -5.96725e-21)
(1.72635 0.0186731 8.93604e-21)
(0.0567343 -0.0131726 3.01705e-20)
(0.349536 -0.0508691 -9.44296e-23)
(0.733105 -0.0414349 1.09966e-20)
(1.07885 -0.0164876 7.63628e-21)
(1.3327 0.00755862 7.12407e-21)
(1.49856 0.024716 5.55455e-21)
(1.60247 0.0342232 0)
(1.67168 0.0378403 3.21619e-21)
(1.72519 0.0382586 -1.16519e-20)
(1.77388 0.0332814 1.47761e-20)
(0.106446 -0.0212737 -4.86952e-20)
(0.493059 -0.0490777 1.65379e-21)
(0.917961 -0.0198281 -2.17398e-20)
(1.24651 0.0149804 1.89687e-20)
(1.4576 0.0396411 -2.02588e-20)
(1.58189 0.0530569 6.77642e-21)
(1.65702 0.0580682 0)
(1.71069 0.0579503 -3.21644e-21)
(1.75926 0.055208 2.36333e-21)
(1.80851 0.049911 3.8525e-21)
(0.168837 -0.0243613 0)
(0.645245 -0.0310867 0)
(1.08333 0.0158998 -1.13284e-20)
(1.37622 0.0544894 1.0546e-20)
(1.54254 0.0753372 -6.35707e-21)
(1.63283 0.0830057 5.96841e-21)
(1.68869 0.0829764 6.20735e-21)
(1.73474 0.0791448 -5.86736e-21)
(1.78186 0.0736678 -2.1912e-21)
(1.83372 0.0676362 1.03027e-21)
(0.241351 -0.0197765 1.00741e-20)
(0.792456 0.00343455 0)
(1.2194 0.0628251 -5.14795e-21)
(1.46854 0.0994772 1.90383e-20)
(1.59456 0.113471 -1.09249e-20)
(1.65956 0.114347 0)
(1.70384 0.10915 0)
(1.74666 0.101609 0)
(1.79467 0.0935867 -2.59795e-22)
(1.84879 0.0866609 2.46949e-22)
(0.319275 -0.00563116 -5.28122e-21)
(0.922811 0.0522476 -3.57957e-22)
(1.32241 0.117832 -6.3412e-21)
(1.52718 0.148018 2.05585e-21)
(1.62002 0.153231 2.02062e-21)
(1.66753 0.146865 2.22493e-21)
(1.70544 0.136471 0)
(1.74754 0.125237 1.02578e-22)
(1.7968 0.114822 1.46705e-21)
(1.85271 0.10619 -1.0555e-21)
(0.39652 0.0187257 0)
(1.02853 0.111809 -4.13117e-21)
(1.39227 0.177939 0)
(1.55653 0.198534 -1.28837e-21)
(1.62373 0.193882 -1.1812e-21)
(1.65985 0.180132 -7.54369e-22)
(1.69469 0.164544 0)
(1.73715 0.149598 -1.02588e-22)
(1.78767 0.136711 -3.56568e-22)
(1.84498 0.125684 -8.26916e-22)
(-0.00562079 0.00534783 0)
(-0.0225847 0.00995236 -1.11514e-21)
(-0.0463868 0.0112945 0)
(-0.0686545 0.0110654 -1.46969e-21)
(-0.0876159 0.0100572 -4.64599e-22)
(-0.103055 0.00870478 8.49819e-22)
(-0.115126 0.00728639 -8.00315e-22)
(-0.124237 0.00600501 7.46644e-22)
(-0.131009 0.00503928 1.17682e-23)
(-0.13644 0.00456458 6.46599e-22)
(-0.00688633 0.0156007 -3.50307e-21)
(-0.024181 0.0290731 2.19988e-21)
(-0.0468178 0.0330408 -2.1403e-21)
(-0.0672594 0.0323547 9.76823e-22)
(-0.0840147 0.029327 4.63499e-21)
(-0.0969292 0.0252297 -1.73087e-21)
(-0.10616 0.0208795 0)
(-0.112064 0.0168941 -7.44146e-22)
(-0.115121 0.0138339 -6.90284e-22)
(-0.116539 0.0123081 0)
(-0.00927374 0.0245685 2.33615e-21)
(-0.0271696 0.0459336 0)
(-0.0474999 0.0522955 6.50484e-21)
(-0.0643174 0.051135 -8.13647e-21)
(-0.0766333 0.046094 1.93311e-21)
(-0.084438 0.0391709 0)
(-0.0879188 0.0316464 0)
(-0.0874125 0.0245453 0)
(-0.083068 0.0188839 5.5734e-21)
(-0.0757848 0.0160025 -5.29694e-21)
(-0.0124924 0.0316078 0)
(-0.0311386 0.0592987 -4.90715e-21)
(-0.0480329 0.0675533 9.10757e-21)
(-0.0593483 0.0658219 -4.24689e-21)
(-0.0647936 0.058797 3.94676e-21)
(-0.0645968 0.0490255 -1.1033e-20)
(-0.059022 0.0380879 1.27642e-22)
(-0.0485557 0.0272828 6.40502e-21)
(-0.0331587 0.0182846 5.63149e-21)
(-0.0107985 0.0144796 -7.95931e-21)
(-0.0161988 0.036386 5.28585e-21)
(-0.0354902 0.0682625 -1.05036e-20)
(-0.0476721 0.0775323 -1.4286e-22)
(-0.0512794 0.0749386 9.61783e-23)
(-0.0468395 0.0659375 4.00124e-21)
(-0.0349092 0.0534491 -1.1627e-20)
(-0.0158929 0.0391704 0)
(0.00958154 0.0244322 -3.30335e-21)
(0.0416398 0.0114082 2.98064e-21)
(0.0837163 0.00552162 -1.07385e-20)
(-0.020071 0.0388788 -2.18414e-22)
(-0.0394319 0.0722898 1.08682e-20)
(-0.0451569 0.0812194 4.93454e-21)
(-0.0381026 0.0771222 4.98147e-21)
(-0.0196174 0.0659861 4.22043e-21)
(0.00936131 0.0510369 3.90773e-21)
(0.0481563 0.0340438 0)
(0.0956259 0.0161553 3.30312e-21)
(0.150344 -0.00104486 8.44536e-21)
(0.224753 -0.00966987 -3.20292e-21)
(-0.023842 0.0393072 3.19458e-23)
(-0.0418729 0.07121 5.91637e-21)
(-0.0383997 0.0779993 0)
(-0.0163721 0.0713359 -9.2256e-21)
(0.0221031 0.0576432 9.02643e-21)
(0.0755324 0.0404762 0)
(0.142563 0.0218445 0)
(0.221293 0.00313604 0)
(0.3039 -0.0165843 -6.17371e-21)
(0.424162 -0.0260136 -1.07968e-20)
(-0.0272084 0.0379525 -6.79578e-21)
(-0.0412192 0.0652368 6.36579e-21)
(-0.0239631 0.0678135 1.16322e-20)
(0.0195524 0.0573623 4.56222e-22)
(0.0863987 0.0407711 9.39762e-21)
(0.173746 0.0219042 8.51323e-21)
(0.278211 0.00308097 7.70035e-21)
(0.396406 -0.0132322 6.90333e-21)
(0.509855 -0.0321346 6.1729e-21)
(0.680921 -0.0375285 -4.96306e-21)
(-0.029609 0.0351155 -2.30893e-20)
(-0.0349747 0.0547556 -6.32926e-21)
(0.00329187 0.0512389 -2.34931e-20)
(0.0778356 0.0363658 -1.04795e-20)
(0.183798 0.0174389 3.81072e-22)
(0.31488 -0.00143436 -8.17696e-21)
(0.463342 -0.0178278 8.10275e-21)
(0.620901 -0.0291376 -6.90242e-21)
(0.765884 -0.0424302 6.26938e-21)
(0.96574 -0.0391235 -1.07883e-20)
(-0.0301929 0.0308504 1.57365e-20)
(-0.0195791 0.0401136 0)
(0.0501797 0.029603 1.23886e-20)
(0.167953 0.0110728 -1.6414e-23)
(0.323786 -0.00784685 4.91425e-22)
(0.503962 -0.0233021 8.59005e-21)
(0.694269 -0.0331801 -2.4209e-20)
(0.877611 -0.0383021 0)
(1.04929 -0.0407506 -6.26854e-21)
(1.2264 -0.0303215 0)
(-0.141618 0.00451162 0)
(-0.147045 0.00401842 -5.82624e-22)
(-0.15173 0.00341478 1.14847e-21)
(-0.155643 0.00283414 -4.96051e-22)
(-0.158869 0.0022897 0)
(-0.161445 0.00178106 4.9089e-22)
(-0.163396 0.00130709 -4.93323e-22)
(-0.164747 0.000868974 0)
(-0.165556 0.000472705 0)
(-0.165889 0.000105402 4.84837e-23)
(-0.165785 -0.00022333 0)
(-0.165287 -0.00050211 0)
(-0.164454 -0.000719455 0)
(-0.163365 -0.000863644 0)
(-0.162117 -0.000924912 -4.6444e-23)
(-0.160823 -0.000899508 4.66846e-23)
(-0.159606 -0.000795196 0)
(-0.158565 -0.000636577 -9.08483e-24)
(-0.157718 -0.000465884 9.13261e-24)
(-0.15711 -0.000337095 0)
(-0.118944 0.0123764 0)
(-0.123258 0.0108909 1.52131e-22)
(-0.126763 0.00918924 0)
(-0.129538 0.0075569 2.11842e-21)
(-0.13176 0.00601602 -2.06227e-21)
(-0.133454 0.00457583 1.29115e-22)
(-0.134627 0.00324148 -9.33383e-22)
(-0.135284 0.00201196 1.92438e-21)
(-0.135507 0.000850775 -1.5776e-21)
(-0.135346 -0.000224325 8.61483e-22)
(-0.134804 -0.00118478 6.70113e-22)
(-0.133912 -0.0020042 -1.19051e-21)
(-0.132717 -0.00265171 6.00281e-22)
(-0.131282 -0.00309279 2.84741e-22)
(-0.129684 -0.00329552 -2.24597e-22)
(-0.12802 -0.00324171 4.16912e-23)
(-0.126408 -0.0029435 3.19734e-23)
(-0.124952 -0.00246342 3.56462e-23)
(-0.123682 -0.00192838 -3.58189e-23)
(-0.122722 -0.00152112 4.07403e-24)
(-0.0730125 0.0173093 -1.62931e-22)
(-0.0754423 0.0144408 -1.52396e-22)
(-0.07667 0.0119389 -1.51056e-22)
(-0.0773282 0.00953488 0)
(-0.0776703 0.00723263 -2.41171e-21)
(-0.0776829 0.00507908 1.8842e-21)
(-0.0773566 0.00310203 0)
(-0.0767553 0.00123946 -2.31312e-22)
(-0.0759029 -0.00054139 -1.06207e-22)
(-0.074755 -0.00218665 1.30825e-21)
(-0.0733352 -0.00366749 -1.5158e-22)
(-0.0716676 -0.00495081 -1.52719e-21)
(-0.0697758 -0.00599082 -7.17223e-23)
(-0.0676917 -0.00673207 -6.08192e-23)
(-0.065459 -0.00711658 -5.16634e-23)
(-0.0631406 -0.00709731 1.04549e-22)
(-0.0608279 -0.00666218 -1.02645e-22)
(-0.0586206 -0.00587165 -1.07574e-22)
(-0.0565477 -0.00491479 -2.05389e-23)
(-0.0548356 -0.00415201 7.48378e-25)
(-0.000997564 0.0157446 -5.04316e-21)
(-0.00204952 0.0132784 2.42138e-22)
(0.000306722 0.0105111 3.43297e-22)
(0.00237073 0.00751863 4.81955e-21)
(0.00445065 0.00479024 4.24546e-22)
(0.00665883 0.00230015 1.32026e-22)
(0.00891319 -9.6334e-05 -3.64934e-21)
(0.0111583 -0.0024268 2.21273e-21)
(0.0134946 -0.00461208 1.82612e-21)
(0.0159735 -0.00662704 -1.64029e-21)
(0.0185726 -0.00845659 1.56133e-22)
(0.0212829 -0.0100657 1.63446e-21)
(0.0241004 -0.011402 7.11256e-23)
(0.0270187 -0.0123987 5.76354e-22)
(0.0300288 -0.0129792 -4.02107e-22)
(0.0331121 -0.013066 -2.88823e-22)
(0.0362274 -0.0126008 2.5876e-22)
(0.0393116 -0.0115834 0)
(0.0423765 -0.0101768 3.55773e-23)
(0.0451992 -0.00891431 3.54718e-24)
(0.102804 0.00772002 1.06235e-20)
(0.106117 0.00714138 -4.84236e-21)
(0.109393 0.0041808 5.18769e-21)
(0.114026 0.00107259 0)
(0.118759 -0.00170623 -2.85503e-22)
(0.123068 -0.00433404 -4.26586e-21)
(0.127043 -0.00693558 1.3803e-23)
(0.130935 -0.00943766 2.84729e-22)
(0.134815 -0.0117762 3.73099e-21)
(0.138664 -0.0139439 2.02802e-22)
(0.142473 -0.0159228 0)
(0.146247 -0.0176765 -1.63917e-22)
(0.149992 -0.0191528 0)
(0.153714 -0.0202847 -1.22941e-22)
(0.157425 -0.0209942 0)
(0.161138 -0.0211921 0)
(0.164868 -0.0207923 6.10828e-23)
(0.168613 -0.0197172 -6.36305e-23)
(0.172453 -0.018001 5.49349e-23)
(0.176403 -0.0161428 -1.43074e-23)
(0.250152 -0.00444979 0)
(0.25654 -0.00391441 -3.38781e-22)
(0.260187 -0.00647742 -1.01876e-20)
(0.26578 -0.0094893 9.87396e-21)
(0.271839 -0.0121711 -2.98374e-22)
(0.277451 -0.0146535 0)
(0.282666 -0.0170806 -4.08443e-21)
(0.287679 -0.0194555 7.62879e-21)
(0.292563 -0.0217237 -4.02231e-21)
(0.297307 -0.0238417 -2.09829e-22)
(0.301901 -0.0257784 -1.89311e-22)
(0.306344 -0.0274932 -1.68102e-22)
(0.310639 -0.0289339 0)
(0.31479 -0.0300346 7.79429e-22)
(0.318812 -0.0307284 -1.73612e-21)
(0.322723 -0.030931 7.30099e-22)
(0.326579 -0.0305734 -5.93924e-23)
(0.330412 -0.0295475 -3.94902e-23)
(0.334309 -0.0278207 1.33743e-23)
(0.338887 -0.0254097 -1.33871e-23)
(0.450591 -0.0182762 1.0716e-20)
(0.458002 -0.0166089 0)
(0.459773 -0.0192038 -3.39295e-22)
(0.464032 -0.0220965 6.31828e-22)
(0.469888 -0.0243385 6.0074e-22)
(0.475549 -0.02641 2.86523e-22)
(0.480727 -0.0286111 2.68982e-22)
(0.485705 -0.0308534 -3.58668e-21)
(0.490596 -0.0330004 4.28406e-21)
(0.495342 -0.0349901 3.60436e-21)
(0.499887 -0.0367909 -2.99249e-21)
(0.504202 -0.038355 3.33052e-22)
(0.508287 -0.0396326 -1.0713e-21)
(0.512121 -0.0405577 2.97536e-22)
(0.515734 -0.0410879 1.09251e-21)
(0.519112 -0.0411379 7.86157e-23)
(0.52236 -0.0407042 -7.68644e-23)
(0.525491 -0.0396269 1.12702e-22)
(0.528534 -0.0381308 1.38316e-22)
(0.532561 -0.0353147 5.35678e-24)
(0.70105 -0.0280976 0)
(0.706007 -0.0267686 -1.14422e-20)
(0.705116 -0.0302665 1.17325e-20)
(0.706814 -0.0332314 -3.19197e-22)
(0.71075 -0.0351937 -6.06023e-22)
(0.714904 -0.0371846 -2.86269e-22)
(0.718814 -0.0394132 -5.36501e-22)
(0.722682 -0.0416205 0)
(0.726533 -0.0436549 -2.28643e-22)
(0.730233 -0.045483 -2.07935e-22)
(0.733694 -0.0470868 -1.86413e-22)
(0.736857 -0.0484113 -3.29134e-22)
(0.739733 -0.049424 0)
(0.742261 -0.0500525 0)
(0.744533 -0.0503071 -9.82416e-23)
(0.746443 -0.0500617 -6.84438e-22)
(0.748244 -0.0494658 4.72817e-22)
(0.749762 -0.048141 -3.70575e-23)
(0.751285 -0.046904 -6.5495e-23)
(0.753295 -0.0438739 1.97465e-23)
(0.9764 -0.0292623 1.1264e-20)
(0.977817 -0.0302986 0)
(0.975787 -0.0355068 0)
(0.976342 -0.0389325 -1.00272e-20)
(0.978636 -0.0413279 7.9174e-22)
(0.980962 -0.0439095 1.82742e-20)
(0.983055 -0.0465668 -8.54385e-21)
(0.985033 -0.0489633 0)
(0.98685 -0.0510326 0)
(0.988362 -0.0527861 0)
(0.989555 -0.0542303 9.30981e-23)
(0.990365 -0.0553107 2.41745e-22)
(0.990902 -0.0560442 2.05407e-21)
(0.991025 -0.0563392 -1.9819e-21)
(0.99101 -0.0563058 6.79348e-22)
(0.990525 -0.0557123 -6.00347e-22)
(0.990213 -0.0549597 0)
(0.989297 -0.0533254 1.77717e-23)
(0.98909 -0.0522427 1.94431e-23)
(0.988051 -0.0491692 0)
(1.2422 -0.0276481 -1.9073e-22)
(1.2474 -0.0342717 -1.15746e-20)
(1.24881 -0.0399546 1.14542e-20)
(1.24986 -0.0429076 0)
(1.25009 -0.0452675 9.40383e-21)
(1.24932 -0.0477019 -1.80457e-20)
(1.24798 -0.0499547 8.64932e-21)
(1.24628 -0.0518926 0)
(1.24431 -0.0535678 3.3658e-21)
(1.24202 -0.0549763 -6.35668e-21)
(1.23956 -0.0561213 3.08397e-21)
(1.23684 -0.0569165 -7.85617e-23)
(1.23413 -0.0574192 0)
(1.23113 -0.0574751 -1.70076e-21)
(1.2284 -0.0572961 2.2857e-21)
(1.22521 -0.0565107 -6.51097e-22)
(1.2228 -0.0557459 -3.54175e-22)
(1.21944 -0.0540067 2.57859e-22)
(1.21792 -0.0530687 1.09582e-22)
(1.21413 -0.0501637 0)
(1.51553 -0.0206471 0)
(1.50248 -0.0262807 0)
(1.49186 -0.030317 0)
(1.48249 -0.0335051 0)
(1.474 -0.0364808 0)
(1.46635 -0.0392372 0)
(1.45955 -0.0417068 0)
(1.45336 -0.043889 0)
(1.44769 -0.0458326 0)
(1.4423 -0.0474988 0)
(1.43727 -0.0489229 0)
(1.43232 -0.0500061 0)
(1.42778 -0.0508548 0)
(1.4231 -0.0512696 0)
(1.41906 -0.0515304 0)
(1.4145 -0.0511963 0)
(1.4112 -0.0509585 0)
(1.40656 -0.0497986 0)
(1.40453 -0.0493606 0)
(1.39921 -0.0472772 0)
(1.63985 -0.0128377 0)
(1.63485 -0.0166229 0)
(1.6296 -0.0203954 0)
(1.62399 -0.0243191 0)
(1.61826 -0.0281445 0)
(1.61265 -0.0316359 0)
(1.60726 -0.0347412 0)
(1.602 -0.0374601 0)
(1.59694 -0.0398495 0)
(1.59191 -0.0418748 0)
(1.58712 -0.0436006 0)
(1.58228 -0.0449296 0)
(1.57782 -0.0460009 0)
(1.5731 -0.0466109 0)
(1.56908 -0.0470686 0)
(1.5644 -0.0469395 0)
(1.56109 -0.0469018 0)
(1.5562 -0.0460159 0)
(1.55414 -0.0457491 0)
(1.54842 -0.0440624 0)
(1.73844 -0.00789192 0)
(1.73597 -0.0124457 0)
(1.7325 -0.0164944 0)
(1.72866 -0.0204758 0)
(1.7249 -0.0242851 0)
(1.72126 -0.0277452 0)
(1.71772 -0.0308237 0)
(1.71413 -0.0335119 0)
(1.71057 -0.0358753 0)
(1.70689 -0.0378785 0)
(1.70334 -0.0396015 0)
(1.6996 -0.0409398 0)
(1.69616 -0.0420455 0)
(1.69236 -0.0427078 0)
(1.68919 -0.0432419 0)
(1.68529 -0.0432225 0)
(1.68267 -0.0432956 0)
(1.67848 -0.0425931 0)
(1.67686 -0.0424285 0)
(1.67189 -0.0410149 0)
(1.82659 -0.00397426 0)
(1.82586 -0.00921926 0)
(1.82353 -0.0136877 0)
(1.82065 -0.017751 0)
(1.81792 -0.0215107 0)
(1.81538 -0.0249114 0)
(1.81297 -0.027944 0)
(1.81046 -0.0305839 0)
(1.80795 -0.0329 0)
(1.80526 -0.0348543 0)
(1.80268 -0.0365445 0)
(1.79986 -0.037859 0)
(1.79732 -0.0389667 0)
(1.79439 -0.0396454 0)
(1.79201 -0.0402235 0)
(1.78892 -0.0402701 0)
(1.78696 -0.0404235 0)
(1.78357 -0.0398415 0)
(1.78237 -0.0397596 0)
(1.77831 -0.0385234 0)
(1.91408 -0.00147015 0)
(1.91442 -0.0070153 0)
(1.91303 -0.0117218 0)
(1.91088 -0.0158139 0)
(1.90877 -0.0195011 0)
(1.90684 -0.0228224 0)
(1.90503 -0.0257987 0)
(1.90311 -0.0283879 0)
(1.90116 -0.0306582 0)
(1.89901 -0.0325616 0)
(1.89695 -0.034214 0)
(1.89464 -0.0354937 0)
(1.89258 -0.036591 0)
(1.89012 -0.0372654 0)
(1.8882 -0.0378682 0)
(1.88555 -0.0379477 0)
(1.88395 -0.0381572 0)
(1.88101 -0.037646 0)
(1.88003 -0.0376262 0)
(1.87648 -0.0364936 0)
(2.00719 -0.000113148 0)
(2.00792 -0.00562164 0)
(2.00703 -0.0103272 0)
(2.00521 -0.0143666 0)
(2.00329 -0.0179557 0)
(2.00149 -0.0211693 0)
(1.99982 -0.0240555 0)
(1.99802 -0.0265652 0)
(1.99621 -0.0287677 0)
(1.99416 -0.0306029 0)
(1.9922 -0.0322014 0)
(1.98996 -0.0334307 0)
(1.98799 -0.0345012 0)
(1.98557 -0.0351548 0)
(1.98373 -0.0357638 0)
(1.9811 -0.0358561 0)
(1.97956 -0.0361001 0)
(1.97659 -0.0356349 0)
(1.97565 -0.0356563 0)
(1.97206 -0.0346002 0)
(2.1066 0.000870185 0)
(2.10724 -0.00437707 0)
(2.10633 -0.00893304 0)
(2.10441 -0.0128708 0)
(2.10229 -0.0163548 0)
(2.10021 -0.0194519 0)
(2.09827 -0.0222301 0)
(2.09621 -0.0246434 0)
(2.09415 -0.0267657 0)
(2.09182 -0.0285269 0)
(2.08961 -0.0300654 0)
(2.08707 -0.031242 0)
(2.08487 -0.0322787 0)
(2.08214 -0.0329093 0)
(2.08009 -0.0335145 0)
(2.0771 -0.0336175 0)
(2.07539 -0.0338818 0)
(2.07202 -0.0334614 0)
(2.07097 -0.0335098 0)
(2.0669 -0.0325351 0)
(2.20792 0.00211157 0)
(2.20813 -0.00279577 0)
(2.20689 -0.0071535 0)
(2.20461 -0.010967 0)
(2.20205 -0.0143394 0)
(2.19949 -0.0173175 0)
(2.19707 -0.0199808 0)
(2.19452 -0.0222932 0)
(2.192 -0.0243325 0)
(2.18919 -0.0260246 0)
(2.18654 -0.027506 0)
(2.18351 -0.0286391 0)
(2.1809 -0.0296435 0)
(2.17767 -0.0302619 0)
(2.17526 -0.0308612 0)
(2.17175 -0.0309873 0)
(2.16975 -0.0312657 0)
(2.1658 -0.0309062 0)
(2.16457 -0.0309739 0)
(2.15981 -0.0301043 0)
(2.3037 0.00381307 0)
(2.30346 -0.000765875 0)
(2.30186 -0.00491415 0)
(2.29925 -0.00858153 0)
(2.29633 -0.0118238 0)
(2.29334 -0.0146737 0)
(2.29049 -0.0172154 0)
(2.28749 -0.0194261 0)
(2.28455 -0.0213817 0)
(2.2813 -0.0230125 0)
(2.27826 -0.0244419 0)
(2.27478 -0.0255455 0)
(2.27181 -0.0265231 0)
(2.26813 -0.0271464 0)
(2.26541 -0.0277429 0)
(2.26144 -0.0279127 0)
(2.2592 -0.028205 0)
(2.25476 -0.0279316 0)
(2.25339 -0.028016 0)
(2.24807 -0.0272837 0)
(2.38672 0.00578496 0)
(2.38631 0.0015209 0)
(2.38468 -0.00241589 0)
(2.38207 -0.00591824 0)
(2.37913 -0.00900738 0)
(2.37607 -0.0117145 0)
(2.37311 -0.0141254 0)
(2.36998 -0.0162317 0)
(2.36693 -0.018101 0)
(2.36355 -0.0196748 0)
(2.3604 -0.0210548 0)
(2.3568 -0.0221396 0)
(2.35373 -0.0230953 0)
(2.34993 -0.0237384 0)
(2.34713 -0.0243364 0)
(2.34305 -0.0245683 0)
(2.34076 -0.0248766 0)
(2.3362 -0.0247118 0)
(2.33481 -0.0248128 0)
(2.32938 -0.0242449 0)
(2.45367 0.00749111 0)
(2.45362 0.00355586 0)
(2.45249 -0.00014937 0)
(2.45045 -0.0034564 0)
(2.44806 -0.00636155 0)
(2.44548 -0.00890272 0)
(2.44295 -0.011166 0)
(2.44022 -0.0131563 0)
(2.43755 -0.0149292 0)
(2.43455 -0.0164399 0)
(2.43176 -0.0177654 0)
(2.42854 -0.0188311 0)
(2.42579 -0.0197634 0)
(2.42237 -0.0204295 0)
(2.41986 -0.0210288 0)
(2.41617 -0.0213276 0)
(2.41412 -0.021652 0)
(2.41001 -0.0216016 0)
(2.40876 -0.0217192 0)
(2.40389 -0.0213216 0)
(2.50849 0.00821816 0)
(2.50932 0.004649 0)
(2.50926 0.00123427 0)
(2.5084 -0.0018233 0)
(2.50713 -0.00450204 0)
(2.50561 -0.00684308 0)
(2.50404 -0.00893083 0)
(2.50226 -0.0107788 0)
(2.50047 -0.0124323 0)
(2.49838 -0.0138571 0)
(2.49641 -0.0151099 0)
(2.49405 -0.0161373 0)
(2.49206 -0.017033 0)
(2.48949 -0.0177044 0)
(2.48763 -0.018295 0)
(2.48482 -0.0186424 0)
(2.48328 -0.0189764 0)
(2.48013 -0.0190192 0)
(2.47919 -0.0191505 0)
(2.47545 -0.0188964 0)
(2.5634 0.0073868 0)
(2.56537 0.00424766 0)
(2.56667 0.00120484 0)
(2.56727 -0.0015318 0)
(2.56742 -0.00393068 0)
(2.56723 -0.00602602 0)
(2.5669 -0.00789864 0)
(2.56632 -0.00956242 0)
(2.56566 -0.0110592 0)
(2.56471 -0.012357 0)
(2.56379 -0.0135044 0)
(2.56253 -0.0144545 0)
(2.56147 -0.0152863 0)
(2.55996 -0.0159236 0)
(2.5589 -0.0164837 0)
(2.55716 -0.0168377 0)
(2.55626 -0.0171656 0)
(2.55424 -0.0172542 0)
(2.55368 -0.0173917 0)
(2.55127 -0.0172238 0)
(2.63548 0.00496841 0)
(2.63828 0.00231904 0)
(2.64062 -0.000275376 0)
(2.64236 -0.00262109 0)
(2.64364 -0.00468708 0)
(2.64451 -0.00649012 0)
(2.64516 -0.00810613 0)
(2.64551 -0.00953956 0)
(2.64575 -0.0108381 0)
(2.64568 -0.0119617 0)
(2.64557 -0.0129657 0)
(2.64514 -0.0137919 0)
(2.6448 -0.0145265 0)
(2.64408 -0.0150822 0)
(2.64364 -0.015584 0)
(2.64267 -0.0158935 0)
(2.64224 -0.0161951 0)
(2.64103 -0.0162727 0)
(2.64075 -0.0164056 0)
(2.63926 -0.016257 0)
(2.73776 0.00172728 0)
(2.74049 -0.000411892 0)
(2.74295 -0.00251658 0)
(2.74493 -0.00443453 0)
(2.74649 -0.006142 0)
(2.74759 -0.00763039 0)
(2.74845 -0.00896971 0)
(2.74897 -0.0101477 0)
(2.74938 -0.0112244 0)
(2.74945 -0.0121451 0)
(2.74952 -0.0129817 0)
(2.7492 -0.0136534 0)
(2.74902 -0.0142688 0)
(2.74838 -0.0147103 0)
(2.74806 -0.0151341 0)
(2.74713 -0.0153641 0)
(2.7468 -0.0156234 0)
(2.74561 -0.0156514 0)
(2.74538 -0.0157703 0)
(2.7439 -0.0155967 0)
(2.86905 -0.00109589 0)
(2.87075 -0.00275782 0)
(2.87237 -0.00439312 0)
(2.87359 -0.00589868 0)
(2.87448 -0.00726284 0)
(2.87487 -0.00845188 0)
(2.87509 -0.00952834 0)
(2.87491 -0.010462 0)
(2.87473 -0.0113246 0)
(2.87411 -0.0120475 0)
(2.87363 -0.0127194 0)
(2.87262 -0.0132383 0)
(2.87195 -0.0137339 0)
(2.87058 -0.014061 0)
(2.86985 -0.0144039 0)
(2.86815 -0.0145526 0)
(2.86749 -0.0147654 0)
(2.86543 -0.0147414 0)
(2.86502 -0.0148421 0)
(2.86251 -0.0146421 0)
(3.01181 -0.00262796 0)
(3.01216 -0.0038757 0)
(3.01253 -0.00509912 0)
(3.01251 -0.00623677 0)
(3.01228 -0.00728964 0)
(3.01152 -0.00820945 0)
(3.01068 -0.00904921 0)
(3.00934 -0.0097669 0)
(3.00815 -0.0104373 0)
(3.00637 -0.010987 0)
(3.00497 -0.0115105 0)
(3.00279 -0.0118989 0)
(3.00129 -0.0122864 0)
(2.9987 -0.0125208 0)
(2.99725 -0.0127901 0)
(2.99425 -0.0128801 0)
(2.99304 -0.0130492 0)
(2.98953 -0.0129985 0)
(2.98881 -0.0130805 0)
(2.98463 -0.0128845 0)
(3.1421 -0.00286656 0)
(3.14136 -0.00374939 0)
(3.14067 -0.00460714 0)
(3.13955 -0.00540722 0)
(3.13832 -0.00616003 0)
(3.13647 -0.00681952 0)
(3.13467 -0.00742662 0)
(3.13221 -0.0079396 0)
(3.13008 -0.00842324 0)
(3.12716 -0.00881322 0)
(3.12486 -0.00919203 0)
(3.12149 -0.00946505 0)
(3.11917 -0.00974662 0)
(3.11534 -0.00990648 0)
(3.11318 -0.010103 0)
(3.10882 -0.010156 0)
(3.10706 -0.0102804 0)
(3.10204 -0.0102291 0)
(3.101 -0.0102901 0)
(3.09507 -0.0101303 0)
(3.24066 -0.00210417 0)
(3.23916 -0.00265957 0)
(3.23774 -0.00318494 0)
(3.23582 -0.00366831 0)
(3.23387 -0.00412335 0)
(3.23121 -0.00452141 0)
(3.22869 -0.00488809 0)
(3.2254 -0.00519575 0)
(3.22256 -0.00548618 0)
(3.21876 -0.00571875 0)
(3.2158 -0.00594612 0)
(3.2115 -0.00610833 0)
(3.20857 -0.00627716 0)
(3.20375 -0.00637073 0)
(3.20106 -0.00648799 0)
(3.19562 -0.0065165 0)
(3.19345 -0.00659018 0)
(3.18722 -0.00655469 0)
(3.18595 -0.00659043 0)
(3.17862 -0.00648717 0)
(3.29413 -0.000620074 0)
(3.29218 -0.000842263 0)
(3.29033 -0.00104404 0)
(3.28794 -0.00122462 0)
(3.28556 -0.00139123 0)
(3.28243 -0.00153587 0)
(3.27951 -0.00166733 0)
(3.27573 -0.00177729 0)
(3.2725 -0.00187964 0)
(3.2682 -0.00196194 0)
(3.26487 -0.00204114 0)
(3.26005 -0.00209849 0)
(3.25678 -0.0021567 0)
(3.2514 -0.00219013 0)
(3.24842 -0.00223003 0)
(3.24238 -0.00224108 0)
(3.23999 -0.0022657 0)
(3.23308 -0.00225484 0)
(3.23169 -0.00226648 0)
(3.22359 -0.00223217 0)
(1.90913 0.112127 8.07966e-22)
(1.91515 0.098621 0)
(1.90929 0.0842395 -2.78277e-23)
(1.8938 0.0693725 -5.35227e-22)
(1.86732 0.0541521 -4.43257e-21)
(1.83482 0.0397541 0)
(1.79188 0.0246714 -8.35494e-21)
(1.73762 0.0134122 0)
(1.69168 -0.00247592 -1.07592e-20)
(1.53294 -0.0158361 1.67852e-22)
(1.98495 0.102606 -1.10719e-21)
(1.98808 0.0909367 1.36106e-22)
(1.98013 0.0782444 -1.36382e-22)
(1.9617 0.066265 -1.29593e-21)
(1.93556 0.0528048 -3.28793e-22)
(1.89713 0.0417995 6.47579e-23)
(1.86556 0.0281222 0)
(1.79523 0.0184398 6.33203e-21)
(1.78761 0.00796444 0)
(1.6446 -0.00820005 9.55288e-21)
(2.06897 0.0930609 2.354e-21)
(2.06831 0.0830246 0)
(2.0606 0.0713791 -1.08912e-22)
(2.03666 0.0612897 -1.13206e-21)
(2.01468 0.0493573 2.64803e-22)
(1.96545 0.0400879 0)
(1.94525 0.0295813 -1.97348e-21)
(1.86146 0.0193036 -6.43823e-21)
(1.86209 0.0133424 0)
(1.7402 -0.00177337 -9.45495e-21)
(2.15627 0.0851934 -1.10404e-21)
(2.15167 0.0762455 4.05443e-21)
(2.14686 0.0658875 0)
(2.11757 0.0567204 3.11657e-21)
(2.10144 0.0467469 8.32328e-23)
(2.04422 0.0374128 -8.51711e-23)
(2.02876 0.0297803 2.03502e-21)
(1.94149 0.0186987 7.0241e-23)
(1.93478 0.0142105 3.70732e-21)
(1.82611 0.00238689 0)
(2.24141 0.0787682 0)
(2.23388 0.0704971 -3.97171e-21)
(2.23284 0.0617208 -4.05416e-21)
(2.20125 0.0528752 4.29573e-22)
(2.18997 0.0448571 -2.49007e-22)
(2.13151 0.0351862 -6.71464e-23)
(2.11594 0.0290415 -1.96775e-21)
(2.03176 0.0184825 6.95893e-23)
(2.01761 0.0136776 -1.88046e-21)
(1.91255 0.00473066 -3.98477e-21)
(2.31887 0.0732843 1.59314e-21)
(2.31027 0.0655255 2.76305e-22)
(2.31261 0.0582089 -9.6019e-22)
(2.28246 0.0496936 2.12163e-22)
(2.27503 0.0430214 -4.67105e-21)
(2.22063 0.0337477 0)
(2.20581 0.0279913 2.08094e-21)
(2.12661 0.0188684 -5.57673e-23)
(2.11116 0.0134077 -1.95813e-21)
(2.00558 0.00592843 6.17378e-21)
(2.38413 0.0682559 -1.60098e-21)
(2.37612 0.0611055 -2.79864e-21)
(2.38155 0.0548824 4.12999e-21)
(2.35518 0.0470578 -6.82341e-21)
(2.35219 0.0411405 -1.28307e-21)
(2.30406 0.0329094 -4.04759e-21)
(2.29388 0.0272089 1.12968e-22)
(2.22028 0.0193971 -1.61445e-22)
(2.20907 0.0136422 1.55744e-22)
(2.10536 0.00662495 -2.20663e-21)
(2.43493 0.0632282 0)
(2.4284 0.0568518 6.13875e-21)
(2.43704 0.0514595 -6.00254e-22)
(2.41501 0.0446109 3.46896e-21)
(2.4176 0.0392763 -8.3163e-22)
(2.37606 0.0322113 8.69274e-21)
(2.37343 0.0267962 -3.44825e-21)
(2.3071 0.019813 0)
(2.30275 0.0143251 0)
(2.20718 0.00743974 0)
(2.47227 0.0578767 0)
(2.46746 0.052319 -5.82792e-21)
(2.47917 0.0477032 -3.54784e-22)
(2.46109 0.0418595 4.02759e-21)
(2.46911 0.0372526 6.43885e-21)
(2.43409 0.0311776 -5.18165e-21)
(2.43887 0.0264542 4.1909e-21)
(2.38234 0.0200829 -2.1584e-22)
(2.38437 0.0153028 0)
(2.30343 0.00868826 1.37439e-21)
(2.50115 0.0519779 2.21981e-22)
(2.49817 0.0471624 3.3447e-21)
(2.51184 0.0433601 4.97974e-21)
(2.49715 0.0383991 -2.08666e-22)
(2.50842 0.03469 5.20132e-22)
(2.47975 0.0294627 -6.68293e-21)
(2.48881 0.0256962 5.72327e-21)
(2.44376 0.0200599 -2.60752e-22)
(2.44936 0.0161522 0)
(2.38665 0.0102083 -3.43112e-21)
(2.5309 0.0452345 0)
(2.52978 0.0411334 3.47689e-21)
(2.54344 0.0381479 2.69157e-22)
(2.53153 0.033989 0)
(2.54247 0.0311762 0)
(2.51935 0.0268198 5.96207e-21)
(2.5281 0.0239847 -4.73626e-21)
(2.49371 0.0193664 -2.37793e-22)
(2.49917 0.0162405 1.44949e-22)
(2.45331 0.0114533 2.13862e-21)
(2.57392 0.0376439 0)
(2.57434 0.0342935 -6.6815e-21)
(2.58589 0.0319917 -6.75304e-21)
(2.57572 0.0286445 9.50841e-22)
(2.58309 0.0265057 -5.93795e-22)
(2.56344 0.0231268 -4.15297e-22)
(2.56802 0.020939 7.48819e-22)
(2.54034 0.01757 4.44196e-21)
(2.54279 0.0149915 3.75006e-22)
(2.50732 0.0116993 -1.05033e-22)
(2.64184 0.0297294 0)
(2.64276 0.0271339 3.61916e-21)
(2.65106 0.02526 -3.69455e-22)
(2.64107 0.0227314 3.66406e-22)
(2.64357 0.0209272 0)
(2.62433 0.0185415 0)
(2.62346 0.0166322 0)
(2.59669 0.014498 -5.02511e-21)
(2.59536 0.0122193 4.52723e-21)
(2.56115 0.0103767 0)
(2.73972 0.0222856 0)
(2.73967 0.0203782 2.34751e-21)
(2.74504 0.0187124 2.88333e-21)
(2.73369 0.0169006 3.52316e-21)
(2.73257 0.0151796 -6.50216e-22)
(2.71115 0.0135906 3.69544e-21)
(2.70658 0.0117286 -3.06324e-21)
(2.67609 0.0104802 0)
(2.67238 0.0083678 5.29566e-22)
(2.63248 0.00747863 -4.08666e-21)
(2.86117 0.0161901 -5.53154e-22)
(2.85913 0.0147816 -1.9142e-21)
(2.86305 0.0132492 -3.73118e-21)
(2.84993 0.0119038 -2.48197e-21)
(2.84799 0.0102358 0)
(2.82411 0.00906345 -4.66363e-21)
(2.8192 0.00726469 4.4251e-21)
(2.78459 0.00635165 -4.0919e-22)
(2.78085 0.00443342 -2.25615e-21)
(2.7349 0.00379474 6.04936e-21)
(2.98916 0.0118457 5.55992e-22)
(2.98554 0.0106922 -1.52217e-21)
(2.98954 0.00936481 1.28332e-21)
(2.97605 0.00820302 -3.03156e-21)
(2.9757 0.00673807 0)
(2.952 0.00562821 0)
(2.94934 0.00406639 4.37608e-22)
(2.91496 0.00306102 -4.02362e-21)
(2.91279 0.00144275 -2.22297e-21)
(2.86725 0.000578486 -2.1104e-21)
(3.1044 0.00880008 0)
(3.10097 0.00776462 2.47007e-21)
(3.10573 0.00676254 -8.58994e-22)
(3.0945 0.0056569 2.728e-21)
(3.09631 0.00455709 7.10242e-22)
(3.07683 0.0034013 -5.3385e-22)
(3.07679 0.00221967 9.75625e-22)
(3.04872 0.00105407 2.77094e-21)
(3.04813 -0.000200423 0)
(3.01137 -0.0013079 0)
(3.19614 0.00604027 0)
(3.19458 0.00521199 1.02334e-21)
(3.19957 0.00462709 -1.78425e-21)
(3.19259 0.00368674 0)
(3.19547 0.0030177 -1.36747e-21)
(3.18294 0.00197051 -5.47694e-22)
(3.18417 0.00119789 -1.48337e-21)
(3.16609 8.75227e-05 -3.96093e-22)
(3.16613 -0.000803381 2.17287e-22)
(3.1427 -0.00189227 1.61934e-22)
(3.2631 0.00315297 0)
(3.26338 0.00272263 -1.02822e-21)
(3.26741 0.00256116 -8.84317e-22)
(3.26455 0.00200433 1.17118e-21)
(3.26699 0.00173949 6.35095e-22)
(3.26111 0.00105036 5.96069e-22)
(3.26211 0.000651255 2.48932e-21)
(3.25343 -0.000130369 -1.73673e-21)
(3.25314 -0.000673959 3.91618e-22)
(3.24197 -0.0014736 0)
(3.30109 0.000674261 0)
(3.30212 0.000659855 4.94492e-22)
(3.3049 0.000754671 -4.64147e-22)
(3.30431 0.000666596 4.28107e-22)
(3.30583 0.000682139 0)
(3.30379 0.000497995 -5.98997e-22)
(3.30409 0.000411034 4.83936e-22)
(3.30087 0.00014394 4.01282e-22)
(3.3 -4.65126e-05 0)
(3.29591 -0.000362415 0)
(1.17568 0.231081 0)
(1.11198 0.252958 -5.18098e-20)
(1.06172 0.282515 0)
(1.02117 0.321009 -1.71096e-19)
(0.985798 0.367933 6.55025e-20)
(0.953084 0.425069 2.42061e-21)
(0.920081 0.493079 5.52628e-20)
(0.8691 0.561152 -7.57983e-21)
(0.740372 0.574723 0)
(0.414876 0.35725 5.58099e-20)
(1.27186 0.232486 9.41663e-20)
(1.20879 0.261128 5.18088e-20)
(1.15812 0.289407 -4.84645e-20)
(1.11607 0.326674 5.773e-20)
(1.08043 0.373617 -4.77649e-20)
(1.04999 0.430868 7.98194e-21)
(1.02117 0.498541 -5.68248e-20)
(0.973342 0.565133 -1.11856e-19)
(0.837207 0.575489 -2.9642e-20)
(0.470123 0.352519 -8.12421e-20)
(1.36404 0.229592 -4.08517e-20)
(1.3043 0.260801 4.21829e-20)
(1.25413 0.288564 4.84631e-20)
(1.21045 0.32507 4.94005e-20)
(1.1741 0.371633 5.01438e-20)
(1.14551 0.42815 5.04021e-20)
(1.12034 0.494121 9.53474e-21)
(1.07452 0.557113 4.74352e-20)
(0.92911 0.5622 1.70935e-20)