/*--------------------------------*- C++ -*----------------------------------*\
| =========                 |                                                 |
| \\      /  F ield         | OpenFOAM: The Open Source CFD Toolbox           |
|  \\    /   O peration     | Version:  4.1                                   |
|   \\  /    A nd           | Web:      www.OpenFOAM.org                      |
|    \\/     M anipulation  |                                                 |
\*---------------------------------------------------------------------------*/
FoamFile
{
    version     2.0;
    format      ascii;
    class       volVectorField;
    location    "15";
    object      U;
}
// * * * * * * * * * * * * * * * * * * * * * * * * * * * * * * * * * * * * * //

dimensions      [0 1 -1 0 0 0 0];

internalField   nonuniform List<vector> 
2000
(
(-0.0151324 0.0165199 5.81387e-20)
(0.00816308 0.018385 0)
(0.0743479 0.0122984 9.60506e-20)
(0.170553 0.00376278 4.12421e-20)
(0.288045 -0.00375294 -7.84065e-20)
(0.419406 -0.0082598 -9.89197e-20)
(0.557825 -0.00889416 3.10777e-20)
(0.697543 -0.00491273 0)
(0.834527 0.00546738 -2.35985e-20)
(0.956129 0.0141992 0)
(-0.00822511 0.0105148 -2.86429e-20)
(0.0379896 0.00418885 2.60207e-20)
(0.133979 -0.00389568 -1.09265e-19)
(0.262952 -0.010385 -1.4106e-19)
(0.412754 -0.0131251 -3.33306e-21)
(0.572795 -0.0112842 3.17648e-20)
(0.73369 -0.00527386 -3.47248e-20)
(0.887974 0.00399789 -2.78747e-20)
(1.03067 0.0153536 2.35933e-20)
(1.15008 0.0169494 3.88281e-20)
(0.00281407 0.00391262 3.29331e-20)
(0.0793261 -0.009844 -3.45564e-20)
(0.210879 -0.0175469 5.50468e-20)
(0.375622 -0.0190117 -4.72271e-21)
(0.556811 -0.0141417 4.25622e-20)
(0.740126 -0.00380712 3.71919e-20)
(0.913924 0.0100738 3.23061e-20)
(1.07007 0.0253622 2.78697e-20)
(1.20402 0.0400737 2.3668e-20)
(1.30952 0.0466005 -1.95194e-20)
(0.0188061 -0.00271512 -1.8719e-21)
(0.133319 -0.0218192 -3.85579e-20)
(0.305009 -0.025705 0)
(0.505748 -0.0187023 4.79364e-20)
(0.713472 -0.00372987 -5.0776e-20)
(0.910669 0.0161151 0)
(1.08516 0.0373852 0)
(1.23044 0.0572034 0)
(1.34478 0.0735247 -2.36667e-20)
(1.42764 0.0818469 3.32985e-20)
(0.0404038 -0.00858041 8.61923e-20)
(0.200236 -0.029501 -3.29362e-22)
(0.414441 -0.0253919 3.68933e-20)
(0.647782 -0.00671766 2.65483e-20)
(0.873295 0.019657 2.68949e-20)
(1.07237 0.0482878 2.22328e-20)
(1.23514 0.0747337 0)
(1.35931 0.0962391 1.39342e-20)
(1.44772 0.11152 -4.91811e-20)
(1.50504 0.118892 6.20074e-20)
(0.0679394 -0.0126855 -1.3805e-19)
(0.279156 -0.0304738 4.77945e-21)
(0.535211 -0.0139974 -7.35025e-20)
(0.794017 0.0185116 6.68255e-20)
(1.02593 0.0558007 -7.83524e-20)
(1.21471 0.0907041 2.70066e-20)
(1.35595 0.118882 0)
(1.45333 0.138686 -1.39351e-20)
(1.51463 0.150221 1.04076e-20)
(1.54822 0.154053 1.83492e-20)
(0.101287 -0.0138852 0)
(0.367804 -0.0224196 0)
(0.661601 0.0102862 -3.94126e-20)
(0.935849 0.0571215 3.77108e-20)
(1.16224 0.103006 -2.64514e-20)
(1.33088 0.140497 2.53111e-20)
(1.44502 0.166731 3.02486e-20)
(1.51468 0.181995 -2.89876e-20)
(1.55159 0.18808 -1.29626e-20)
(1.566 0.187285 6.89485e-21)
(0.139771 -0.0110018 2.87952e-20)
(0.462599 -0.00346907 0)
(0.786862 0.0481239 -1.88927e-20)
(1.06527 0.107889 7.36846e-20)
(1.27587 0.158707 -4.692e-20)
(1.41827 0.194784 0)
(1.50404 0.215925 0)
(1.54849 0.224719 0)
(1.56565 0.224535 -8.0752e-21)
(1.56599 0.218733 7.75788e-21)
(0.182133 -0.00297477 -1.48334e-20)
(0.558958 0.0274632 -7.00335e-22)
(0.904168 0.0989219 -2.27207e-20)
(1.17601 0.168594 9.28037e-21)
(1.36359 0.220098 8.87356e-21)
(1.47753 0.251157 1.20418e-20)
(1.53688 0.264933 0)
(1.56044 0.266248 -1.48463e-21)
(1.56283 0.259688 -1.2379e-21)
(1.55359 0.248994 9.27034e-22)
(0.226594 0.0109805 0)
(0.651795 0.0704515 -1.39471e-20)
(1.00751 0.160954 0)
(1.26406 0.236468 -5.23131e-21)
(1.42482 0.284519 -5.12487e-21)
(1.5112 0.307731 -5.44014e-21)
(1.54795 0.312756 0)
(1.55545 0.30626 1.48498e-21)
(1.54757 0.293585 2.72551e-22)
(1.53233 0.278204 -1.56522e-21)
(-0.00406232 0.00367647 0)
(-0.0161081 0.00725904 -3.43445e-21)
(-0.0334902 0.00858163 0)
(-0.0506861 0.00872825 -4.81053e-21)
(-0.0659243 0.00828826 -1.54165e-21)
(-0.0789631 0.00762335 2.86438e-21)
(-0.0899834 0.00697542 -2.73541e-21)
(-0.0993762 0.00649931 2.57404e-21)
(-0.107641 0.00629094 2.92204e-23)
(-0.115415 0.00640355 2.28937e-21)
(-0.00498819 0.0107845 -9.19322e-21)
(-0.0174588 0.0212262 6.50911e-21)
(-0.034119 0.025068 -6.6325e-21)
(-0.0499284 0.0254357 3.10745e-21)
(-0.0633685 0.0240569 1.49926e-20)
(-0.0743026 0.022005 -5.70209e-21)
(-0.082979 0.0200038 0)
(-0.0898289 0.0185307 -2.51751e-21)
(-0.0953496 0.0179007 -2.37093e-21)
(-0.10037 0.0182849 0)
(-0.00676538 0.0171291 6.12193e-21)
(-0.0199931 0.0335907 0)
(-0.0351679 0.0395636 2.01416e-20)
(-0.0482272 0.039933 -2.58257e-20)
(-0.0580954 0.0374506 6.27331e-21)
(-0.0648428 0.0338523 0)
(-0.0688554 0.0303308 0)
(-0.0706468 0.027723 0)
(-0.0707079 0.0266513 1.90744e-20)
(-0.0702398 0.0274628 -1.83138e-20)
(-0.00918806 0.0222783 0)
(-0.023322 0.0434761 -1.47525e-20)
(-0.0361932 0.0509349 2.82846e-20)
(-0.0451141 0.0509506 -1.35427e-20)
(-0.0496265 0.0471207 1.26469e-20)
(-0.050102 0.0417438 -3.58263e-20)
(-0.0471306 0.036445 5.55641e-22)
(-0.0413564 0.0324677 2.12373e-20)
(-0.0332578 0.0309149 1.92486e-20)
(-0.0245265 0.0324911 -2.76375e-20)
(-0.0119853 0.0259846 1.41442e-20)
(-0.0268615 0.0502523 -3.19862e-20)
(-0.0364402 0.0583401 -6.14295e-22)
(-0.0396935 0.057552 3.07005e-22)
(-0.0369336 0.0521066 1.26627e-20)
(-0.028923 0.0447204 -3.78289e-20)
(-0.0165184 0.0373651 0)
(-0.000539191 0.0317119 -1.0743e-20)
(0.0185573 0.0295803 9.7833e-21)
(0.0383131 0.0323804 -3.7868e-20)
(-0.0148421 0.028134 -7.45394e-22)
(-0.0298213 0.053536 3.33754e-20)
(-0.034753 0.0612503 1.55613e-20)
(-0.0304623 0.0591873 1.63606e-20)
(-0.0181593 0.0519437 1.36367e-20)
(0.000910265 0.042474 1.26564e-20)
(0.0255425 0.0329438 0)
(0.0546639 0.025375 1.07414e-20)
(0.0878742 0.0225095 2.86021e-20)
(0.12192 0.0270952 -9.94358e-21)
(-0.0174026 0.0287119 1.15392e-22)
(-0.0311834 0.0531659 1.86013e-20)
(-0.029506 0.0594554 0)
(-0.0151832 0.0557255 -2.93122e-20)
(0.00956481 0.0467298 2.99392e-20)
(0.0428989 0.0354808 0)
(0.0831446 0.0241307 0)
(0.128804 0.0148109 0)
(0.179499 0.0111863 -1.93927e-20)
(0.231557 0.0181571 -3.9146e-20)
(-0.0192548 0.0277539 -1.94844e-20)
(-0.0296861 0.0491694 2.04473e-20)
(-0.0185886 0.0530491 3.86539e-20)
(0.00909977 0.0474533 2.2481e-21)
(0.0500279 0.0371186 3.18917e-20)
(0.101584 0.0249831 2.87378e-20)
(0.161404 0.0129963 2.57017e-20)
(0.227278 0.00303868 2.26802e-20)
(0.298609 -0.000673747 1.9388e-20)
(0.372232 0.00950535 -1.73531e-20)
(-0.0199023 0.0253322 -6.79677e-20)
(-0.0238098 0.0417386 -2.04656e-20)
(0.000524526 0.0424355 -7.84449e-20)
(0.0458702 0.0350923 -3.55473e-20)
(0.107536 0.0242778 2.04842e-21)
(0.181825 0.0127908 -2.68113e-20)
(0.265292 0.00230884 2.84477e-20)
(0.354573 -0.00574652 -2.26746e-20)
(0.448219 -0.00721117 1.98558e-20)
(0.544368 0.0074665 -3.83062e-20)
(-0.0187602 0.0215401 4.647e-20)
(-0.0118156 0.0312538 0)
(0.0306072 0.0284099 4.19051e-20)
(0.0987125 0.0198801 -1.35937e-22)
(0.186114 0.00986851 2.34436e-21)
(0.287586 0.000933549 2.9804e-20)
(0.398167 -0.00552766 -8.45049e-20)
(0.513054 -0.00840801 0)
(0.628995 -0.00419243 -1.98496e-20)
(0.742082 0.0130692 0)
(-0.12334 0.00672313 0)
(-0.131893 0.00666271 -2.12439e-21)
(-0.140238 0.00634786 4.20613e-21)
(-0.148097 0.00591725 -1.82346e-21)
(-0.155394 0.00541799 0)
(-0.16206 0.00486802 1.87399e-21)
(-0.168029 0.00428205 -1.88177e-21)
(-0.173251 0.00367357 0)
(-0.177698 0.00305476 0)
(-0.181354 0.00243713 1.94997e-22)
(-0.184218 0.00183213 0)
(-0.186295 0.00125161 0)
(-0.187594 0.00070566 0)
(-0.188192 0.000196201 0)
(-0.188168 -0.000261979 -2.01095e-22)
(-0.187574 -0.000659555 2.01953e-22)
(-0.186488 -0.000989361 0)
(-0.18492 -0.00124648 -3.88583e-23)
(-0.182818 -0.0014327 3.90255e-23)
(-0.180852 -0.00154488 0)
(-0.106416 0.0192656 0)
(-0.114159 0.0190895 5.45418e-22)
(-0.121659 0.0181774 0)
(-0.128595 0.0169335 7.78601e-21)
(-0.135004 0.0154854 -7.56778e-21)
(-0.140838 0.0138829 4.84511e-22)
(-0.14603 0.0121704 -3.57236e-21)
(-0.150533 0.0103897 7.41646e-21)
(-0.154321 0.0085779 -6.16827e-21)
(-0.157382 0.00676962 3.39748e-21)
(-0.159717 0.00499865 2.72474e-21)
(-0.161333 0.00330015 -4.87177e-21)
(-0.162252 0.00170551 2.47657e-21)
(-0.162543 0.000221216 1.21354e-21)
(-0.162266 -0.0011121 -9.56117e-22)
(-0.161479 -0.00226761 1.84194e-22)
(-0.160259 -0.00322443 1.4353e-22)
(-0.158619 -0.00396655 1.55212e-22)
(-0.156486 -0.00449489 -1.55804e-22)
(-0.154465 -0.00480683 1.87947e-23)
(-0.0727116 0.0292314 -5.72888e-22)
(-0.0789111 0.0289451 -5.47005e-22)
(-0.0848271 0.0275084 -5.48982e-22)
(-0.0900017 0.0255732 0)
(-0.0946883 0.0233084 -9.01672e-21)
(-0.0989001 0.0207827 7.03784e-21)
(-0.102568 0.0180705 0)
(-0.10565 0.0152447 -8.99059e-22)
(-0.108132 0.0123692 -4.18047e-22)
(-0.110012 0.00950095 5.30397e-21)
(-0.111293 0.00669458 -5.1357e-22)
(-0.111986 0.00400772 -6.29424e-21)
(-0.112139 0.00149427 -3.06039e-22)
(-0.111809 -0.000834518 -2.6038e-22)
(-0.111026 -0.00292088 -2.30268e-22)
(-0.109851 -0.00472263 4.78634e-22)
(-0.108358 -0.00620629 -4.60526e-22)
(-0.106558 -0.00734487 -4.96252e-22)
(-0.104351 -0.00813766 -9.65731e-23)
(-0.102254 -0.00859808 5.26746e-24)
(-0.0220472 0.0352683 -1.79359e-20)
(-0.0261667 0.0349524 4.87839e-22)
(-0.0299614 0.0330729 1.12603e-21)
(-0.0327041 0.0305815 1.76799e-20)
(-0.0349613 0.027669 1.59012e-21)
(-0.0368573 0.024397 5.00482e-22)
(-0.0383307 0.0208662 -1.42139e-20)
(-0.0393538 0.0171854 8.49171e-21)
(-0.0399354 0.013445 7.22843e-21)
(-0.0400935 0.00972327 -6.73522e-21)
(-0.0398395 0.00609568 5.2934e-22)
(-0.0391806 0.00264294 6.84938e-21)
(-0.0382071 -0.000586598 3.05075e-22)
(-0.0369663 -0.00355846 2.57669e-21)
(-0.0354468 -0.00620391 -1.79779e-21)
(-0.033707 -0.00847138 -1.36573e-21)
(-0.031811 -0.0103175 1.21171e-21)
(-0.0297689 -0.0117063 0)
(-0.0274548 -0.0126393 1.82407e-22)
(-0.0252516 -0.0131667 1.89292e-23)
(0.0467106 0.0367578 3.75425e-20)
(0.045107 0.0365363 -1.76861e-20)
(0.043557 0.0341688 1.89501e-20)
(0.0436308 0.031196 0)
(0.0443153 0.027791 -1.07438e-21)
(0.0452531 0.0239524 -1.64589e-20)
(0.0464801 0.0198032 -2.19447e-22)
(0.0480006 0.0154933 8.47995e-22)
(0.0497654 0.0111363 1.49196e-20)
(0.0517297 0.0068364 8.3226e-22)
(0.0538776 0.00268843 0)
(0.0561686 -0.00121922 -7.00539e-22)
(0.058484 -0.00491651 0)
(0.060826 -0.00827941 -5.5174e-22)
(0.0632182 -0.0112342 0)
(0.0656163 -0.0137334 0)
(0.0679754 -0.0157295 3.0175e-22)
(0.0702917 -0.0171796 -3.41646e-22)
(0.0727063 -0.0180872 3.00281e-22)
(0.0749881 -0.0185615 -8.9589e-23)
(0.136428 0.0340052 0)
(0.137235 0.0338299 -1.23606e-21)
(0.137759 0.0307344 -3.78386e-20)
(0.140767 0.0272625 3.6696e-20)
(0.144635 0.0234672 -1.13367e-21)
(0.14864 0.0192027 0)
(0.152779 0.0146228 -1.61387e-20)
(0.157019 0.00994029 3.04311e-20)
(0.161275 0.00527432 -1.62128e-20)
(0.165471 0.000769392 -8.7031e-22)
(0.16958 -0.00353453 -8.03656e-22)
(0.173423 -0.00766817 -7.31774e-22)
(0.176985 -0.0115177 0)
(0.180384 -0.0149454 3.65309e-21)
(0.183573 -0.0179118 -8.25931e-21)
(0.186528 -0.0203745 3.54373e-21)
(0.18924 -0.0222838 -3.11539e-22)
(0.191721 -0.0235919 -2.20395e-22)
(0.194113 -0.0242974 8.22115e-23)
(0.196358 -0.0245695 -8.93333e-23)
(0.25131 0.0282144 3.85885e-20)
(0.254035 0.0276282 0)
(0.256339 0.0233161 -1.25154e-21)
(0.262199 0.019256 2.37348e-21)
(0.269141 0.0151362 2.28982e-21)
(0.276003 0.010578 1.10377e-21)
(0.282782 0.00579751 1.0503e-21)
(0.289403 0.00112072 -1.44741e-20)
(0.295778 -0.00341031 1.73174e-20)
(0.301739 -0.00784144 1.51852e-20)
(0.30711 -0.0121171 -1.26301e-20)
(0.311942 -0.0161409 1.45776e-21)
(0.316369 -0.0197367 -4.90094e-21)
(0.320351 -0.0228909 1.23062e-21)
(0.323874 -0.0255766 5.19623e-21)
(0.326959 -0.0277461 3.97235e-22)
(0.329638 -0.0293516 -4.39067e-22)
(0.331947 -0.0303448 5.79021e-22)
(0.334015 -0.0307109 8.16961e-22)
(0.335922 -0.0306291 4.14972e-23)
(0.395408 0.0220422 0)
(0.399974 0.0193758 -4.22621e-20)
(0.404311 0.013086 4.34337e-20)
(0.412858 0.0084139 -1.20186e-21)
(0.42219 0.00410937 -2.30998e-21)
(0.430901 -0.000415717 -1.10683e-21)
(0.439233 -0.00486999 -2.0978e-21)
(0.447026 -0.00926839 0)
(0.45398 -0.0135758 -9.35094e-22)
(0.460115 -0.0177251 -8.69888e-22)
(0.465593 -0.0215821 -7.91165e-22)
(0.47042 -0.0250393 -1.44214e-21)
(0.474601 -0.0281007 0)
(0.478159 -0.0307511 0)
(0.481136 -0.032949 -4.79121e-22)
(0.483583 -0.0346493 -3.55295e-21)
(0.485561 -0.0358136 2.46285e-21)
(0.487125 -0.036398 -2.11253e-22)
(0.488405 -0.0363882 -4.13138e-22)
(0.489463 -0.0358707 1.28912e-22)
(0.571054 0.0185041 3.96088e-20)
(0.579831 0.0101745 0)
(0.587587 0.00196467 0)
(0.597884 -0.0026023 -3.77742e-20)
(0.607404 -0.0067649 2.67148e-21)
(0.615405 -0.0110888 7.02965e-20)
(0.622232 -0.0151977 -3.3153e-20)
(0.628079 -0.0191211 0)
(0.6332 -0.0227934 0)
(0.637571 -0.0261675 0)
(0.641224 -0.0292592 4.04409e-22)
(0.644211 -0.032055 1.05617e-21)
(0.646588 -0.0345239 9.40506e-21)
(0.64841 -0.0366215 -9.09278e-21)
(0.649733 -0.038304 3.3677e-21)
(0.650612 -0.0395287 -2.97071e-21)
(0.651121 -0.0402667 0)
(0.651298 -0.0404728 1.05887e-22)
(0.651335 -0.0401766 1.21476e-22)
(0.650962 -0.0392661 0)
(0.787347 0.0103332 -6.99027e-22)
(0.803839 -0.00332385 -4.18492e-20)
(0.812693 -0.00878804 4.16281e-20)
(0.818258 -0.0111361 0)
(0.820966 -0.0140375 3.48374e-20)
(0.822435 -0.0171851 -6.7415e-20)
(0.823445 -0.0202402 3.25854e-20)
(0.824016 -0.023174 0)
(0.824223 -0.0260696 1.34454e-20)
(0.82413 -0.028897 -2.57552e-20)
(0.823778 -0.031584 1.26917e-20)
(0.823191 -0.0340576 -3.40651e-22)
(0.822386 -0.0362527 0)
(0.82138 -0.0381114 -7.91933e-21)
(0.820204 -0.0395868 1.07914e-20)
(0.81887 -0.0406311 -3.16472e-21)
(0.81746 -0.0412264 -1.88546e-21)
(0.8159 -0.0413079 1.35022e-21)
(0.814586 -0.0409908 6.16648e-22)
(0.812476 -0.0399061 0)
(1.06981 0.0126969 0)
(1.05119 0.00319375 0)
(1.03976 -0.00145372 0)
(1.02883 -0.00486609 0)
(1.01937 -0.0083315 0)
(1.01192 -0.0117396 0)
(1.00599 -0.0150735 0)
(1.00094 -0.0183228 0)
(0.996464 -0.0214819 0)
(0.992386 -0.0245141 0)
(0.988595 -0.0273671 0)
(0.984995 -0.0299886 0)
(0.981523 -0.0323321 0)
(0.978131 -0.0343519 0)
(0.974812 -0.036013 0)
(0.971518 -0.0372678 0)
(0.968359 -0.0381177 0)
(0.965072 -0.0384648 0)
(0.962449 -0.0385008 0)
(0.958263 -0.0376823 0)
(1.2453 0.0308355 0)
(1.23002 0.0244039 0)
(1.2179 0.0167737 0)
(1.20455 0.0097066 0)
(1.19161 0.00356369 0)
(1.1803 -0.00182371 0)
(1.17047 -0.00665924 0)
(1.16172 -0.0110454 0)
(1.1538 -0.0150414 0)
(1.14653 -0.0186806 0)
(1.1398 -0.0219749 0)
(1.13349 -0.0249201 0)
(1.12752 -0.0275053 0)
(1.12179 -0.0297102 0)
(1.11631 -0.0315241 0)
(1.11096 -0.0329118 0)
(1.10592 -0.0339 0)
(1.10069 -0.0343834 0)
(1.09661 -0.0345909 0)
(1.09003 -0.0339621 0)
(1.37392 0.0436482 0)
(1.36113 0.0379866 0)
(1.35021 0.0304291 0)
(1.33856 0.0226184 0)
(1.32676 0.015544 0)
(1.31565 0.00921781 0)
(1.30533 0.00348252 0)
(1.29567 -0.00172801 0)
(1.28657 -0.00644194 0)
(1.27798 -0.0106846 0)
(1.26985 -0.0144782 0)
(1.2621 -0.0178341 0)
(1.25469 -0.0207582 0)
(1.24755 -0.0232456 0)
(1.24071 -0.0253021 0)
(1.23401 -0.0269055 0)
(1.22775 -0.028096 0)
(1.22116 -0.0287857 0)
(1.21617 -0.0291805 0)
(1.20782 -0.028857 0)
(1.46412 0.0558151 0)
(1.45393 0.0489513 0)
(1.44423 0.0412697 0)
(1.43461 0.0333435 0)
(1.42504 0.0259866 0)
(1.41569 0.0193152 0)
(1.40663 0.0132123 0)
(1.39784 0.00761675 0)
(1.3893 0.00251935 0)
(1.381 -0.00208674 0)
(1.37295 -0.00621433 0)
(1.36511 -0.00987347 0)
(1.3575 -0.0130729 0)
(1.35006 -0.015813 0)
(1.34286 -0.0181038 0)
(1.33572 -0.0199346 0)
(1.32906 -0.0213394 0)
(1.32189 -0.0222709 0)
(1.31661 -0.022854 0)
(1.30738 -0.0228861 0)
(1.51998 0.0661659 0)
(1.51319 0.0578851 0)
(1.50549 0.0498102 0)
(1.49807 0.0418267 0)
(1.49091 0.0343741 0)
(1.4838 0.0275771 0)
(1.47667 0.0213567 0)
(1.46955 0.0156465 0)
(1.46245 0.010428 0)
(1.45538 0.00569477 0)
(1.44836 0.00143757 0)
(1.44139 -0.00235301 0)
(1.43449 -0.00568493 0)
(1.42763 -0.00856195 0)
(1.42092 -0.0109924 0)
(1.41415 -0.0129774 0)
(1.40784 -0.0145314 0)
(1.40085 -0.0156592 0)
(1.39584 -0.0163781 0)
(1.38668 -0.0167141 0)
(1.54805 0.0729789 0)
(1.54499 0.0638922 0)
(1.5399 0.0555903 0)
(1.5349 0.0477076 0)
(1.53017 0.0403662 0)
(1.52538 0.0336419 0)
(1.52037 0.0274891 0)
(1.51518 0.0218491 0)
(1.50986 0.0166931 0)
(1.50442 0.0120088 0)
(1.49888 0.00778544 0)
(1.49326 0.00401285 0)
(1.48759 0.000683403 0)
(1.48184 -0.00221067 0)
(1.47615 -0.00467254 0)
(1.47029 -0.00671663 0)
(1.46482 -0.00833307 0)
(1.4586 -0.00957729 0)
(1.45422 -0.0103665 0)
(1.44589 -0.0109097 0)
(1.55641 0.0760493 0)
(1.55668 0.0668446 0)
(1.55427 0.0586129 0)
(1.55163 0.0510122 0)
(1.54918 0.0439701 0)
(1.54657 0.0374961 0)
(1.5436 0.0315647 0)
(1.54032 0.0261328 0)
(1.53678 0.0211695 0)
(1.53303 0.0166574 0)
(1.52908 0.0125844 0)
(1.52496 0.00893924 0)
(1.52069 0.0057143 0)
(1.51627 0.00289854 0)
(1.51181 0.000493562 0)
(1.50714 -0.00152603 0)
(1.50275 -0.00312972 0)
(1.49761 -0.00440989 0)
(1.49406 -0.005214 0)
(1.48703 -0.00586327 0)
(1.55249 0.0760031 0)
(1.5553 0.0671598 0)
(1.55522 0.0592545 0)
(1.55465 0.0520732 0)
(1.55414 0.0454554 0)
(1.55339 0.0393561 0)
(1.5522 0.033757 0)
(1.55061 0.0286302 0)
(1.54869 0.0239484 0)
(1.54649 0.0196919 0)
(1.54402 0.0158476 0)
(1.54132 0.0124035 0)
(1.53841 0.00935309 0)
(1.5353 0.00668302 0)
(1.53209 0.00439773 0)
(1.52863 0.00246542 0)
(1.52536 0.000929384 0)
(1.52141 -0.000321527 0)
(1.51872 -0.00110084 0)
(1.5132 -0.00177266 0)
(1.54195 0.0736256 0)
(1.54648 0.0654154 0)
(1.54822 0.0580174 0)
(1.54931 0.0513453 0)
(1.55033 0.0452207 0)
(1.55105 0.0395681 0)
(1.55129 0.0343693 0)
(1.55109 0.0296079 0)
(1.55051 0.025262 0)
(1.54961 0.0213119 0)
(1.54841 0.0177442 0)
(1.54693 0.0145467 0)
(1.54522 0.0117138 0)
(1.54327 0.00923127 0)
(1.54119 0.0071053 0)
(1.53885 0.00530191 0)
(1.5366 0.00386868 0)
(1.53379 0.00269227 0)
(1.53189 0.00196268 0)
(1.52784 0.00132584 0)
(1.52856 0.069625 0)
(1.53417 0.062178 0)
(1.53725 0.0553958 0)
(1.53959 0.0492844 0)
(1.54174 0.0436849 0)
(1.54355 0.0385127 0)
(1.54488 0.0337491 0)
(1.54574 0.0293844 0)
(1.54621 0.0254021 0)
(1.54633 0.021784 0)
(1.54613 0.0185172 0)
(1.54565 0.0155899 0)
(1.54491 0.012997 0)
(1.54393 0.0107244 0)
(1.54278 0.00877885 0)
(1.54138 0.00712759 0)
(1.54001 0.0058162 0)
(1.53819 0.00474065 0)
(1.53696 0.00407415 0)
(1.53423 0.00350453 0)
(1.51458 0.0645568 0)
(1.52081 0.0579131 0)
(1.52483 0.0517979 0)
(1.52809 0.0462721 0)
(1.53106 0.0412089 0)
(1.53365 0.0365291 0)
(1.53577 0.0322144 0)
(1.53742 0.0282591 0)
(1.53867 0.0246511 0)
(1.53956 0.0213746 0)
(1.54013 0.0184177 0)
(1.54041 0.0157695 0)
(1.54042 0.013425 0)
(1.5402 0.0113715 0)
(1.53979 0.00961462 0)
(1.53915 0.00812543 0)
(1.53847 0.00694365 0)
(1.53747 0.00598053 0)
(1.53679 0.00538243 0)
(1.53517 0.00489254 0)
(1.50118 0.0588009 0)
(1.50775 0.0529523 0)
(1.51243 0.0475191 0)
(1.51635 0.0425881 0)
(1.51992 0.0380639 0)
(1.52308 0.0338788 0)
(1.52576 0.0300167 0)
(1.52798 0.0264745 0)
(1.5298 0.0232432 0)
(1.53127 0.02031 0)
(1.53241 0.0176643 0)
(1.53326 0.0152962 0)
(1.53384 0.0132011 0)
(1.53419 0.0113678 0)
(1.53434 0.00980068 0)
(1.5343 0.00847536 0)
(1.53415 0.00742425 0)
(1.53379 0.00657553 0)
(1.53354 0.00604636 0)
(1.5328 0.00563577 0)
(1.48891 0.0525909 0)
(1.49566 0.0475106 0)
(1.50082 0.0427567 0)
(1.50523 0.0384219 0)
(1.50924 0.0344362 0)
(1.51281 0.0307454 0)
(1.51591 0.0273365 0)
(1.51855 0.0242078 0)
(1.52079 0.0213533 0)
(1.52268 0.0187625 0)
(1.52424 0.0164266 0)
(1.52552 0.014337 0)
(1.52653 0.0124896 0)
(1.5273 0.0108746 0)
(1.52788 0.00949517 0)
(1.52828 0.00833164 0)
(1.52854 0.00740921 0)
(1.52867 0.00667186 0)
(1.52875 0.00620988 0)
(1.5287 0.00587142 0)
(1.478 0.0460654 0)
(1.48485 0.0417237 0)
(1.49036 0.0376385 0)
(1.49515 0.0338973 0)
(1.49949 0.0304491 0)
(1.50337 0.0272519 0)
(1.50678 0.0242962 0)
(1.50974 0.0215815 0)
(1.51231 0.0191037 0)
(1.51451 0.0168549 0)
(1.51639 0.0148278 0)
(1.51798 0.0130152 0)
(1.51931 0.0114133 0)
(1.52041 0.0100144 0)
(1.52131 0.00882025 0)
(1.52204 0.00781546 0)
(1.52262 0.00701904 0)
(1.52312 0.00638836 0)
(1.52344 0.00599131 0)
(1.52392 0.00571563 0)
(1.46855 0.0393103 0)
(1.47546 0.0356798 0)
(1.48123 0.0322501 0)
(1.48632 0.0290976 0)
(1.49091 0.0261851 0)
(1.49504 0.0234811 0)
(1.49869 0.0209788 0)
(1.5019 0.018679 0)
(1.50471 0.0165789 0)
(1.50716 0.0146725 0)
(1.50929 0.0129541 0)
(1.51112 0.011418 0)
(1.51269 0.0100609 0)
(1.51404 0.0088765 0)
(1.51518 0.007866 0)
(1.51617 0.00701747 0)
(1.51697 0.00634492 0)
(1.51776 0.00581652 0)
(1.51827 0.00548242 0)
(1.51915 0.00526084 0)
(1.4606 0.0323833 0)
(1.46754 0.0294401 0)
(1.47352 0.0266522 0)
(1.47884 0.0240823 0)
(1.48364 0.0217034 0)
(1.48795 0.0194919 0)
(1.4918 0.0174437 0)
(1.4952 0.01556 0)
(1.49821 0.0138389 0)
(1.50085 0.0122763 0)
(1.50316 0.0108676 0)
(1.50519 0.00960842 0)
(1.50695 0.00849621 0)
(1.50848 0.00752606 0)
(1.5098 0.00669855 0)
(1.51099 0.00600481 0)
(1.51197 0.00545489 0)
(1.51297 0.00502551 0)
(1.51363 0.00475302 0)
(1.51481 0.00457873 0)
(1.45419 0.0253219 0)
(1.46115 0.0230477 0)
(1.4673 0.0208901 0)
(1.47279 0.0188974 0)
(1.47774 0.0170498 0)
(1.48221 0.0153305 0)
(1.4862 0.0137371 0)
(1.48976 0.0122707 0)
(1.49291 0.0109305 0)
(1.4957 0.00971318 0)
(1.49816 0.00861569 0)
(1.50033 0.00763473 0)
(1.50223 0.00676829 0)
(1.50391 0.00601279 0)
(1.50537 0.00536844 0)
(1.5067 0.00482892 0)
(1.50782 0.00440112 0)
(1.50898 0.00406873 0)
(1.50974 0.0038571 0)
(1.51115 0.00372544 0)
(1.44936 0.0181569 0)
(1.45634 0.0165371 0)
(1.4626 0.0150016 0)
(1.46822 0.0135825 0)
(1.47329 0.0122651 0)
(1.47786 0.011038 0)
(1.48197 0.00990007 0)
(1.48563 0.00885243 0)
(1.48889 0.00789451 0)
(1.49179 0.00702424 0)
(1.49436 0.00623948 0)
(1.49663 0.00553801 0)
(1.49864 0.00491839 0)
(1.50042 0.00437825 0)
(1.50198 0.00391753 0)
(1.50342 0.00353221 0)
(1.50463 0.00322636 0)
(1.50591 0.00298996 0)
(1.50674 0.00283851 0)
(1.50832 0.00274695 0)
(1.44615 0.0109451 0)
(1.45314 0.00996044 0)
(1.45948 0.0090358 0)
(1.46518 0.00818451 0)
(1.47033 0.00739464 0)
(1.47497 0.00665868 0)
(1.47914 0.005976 0)
(1.48287 0.00534737 0)
(1.48621 0.00477246 0)
(1.48917 0.00425002 0)
(1.49181 0.0037788 0)
(1.49415 0.00335754 0)
(1.49622 0.00298536 0)
(1.49807 0.002661 0)
(1.4997 0.00238413 0)
(1.5012 0.00215301 0)
(1.50248 0.00196881 0)
(1.50383 0.00182798 0)
(1.50472 0.00173548 0)
(1.50639 0.00168334 0)
(1.44456 0.00368781 0)
(1.45156 0.00334162 0)
(1.45794 0.00302538 0)
(1.46368 0.00273821 0)
(1.46885 0.00247338 0)
(1.47352 0.00222727 0)
(1.47773 0.00199929 0)
(1.48149 0.00178951 0)
(1.48486 0.00159771 0)
(1.48786 0.00142343 0)
(1.49053 0.00126621 0)
(1.4929 0.00112566 0)
(1.49501 0.00100145 0)
(1.49689 0.000893225 0)
(1.49855 0.000800753 0)
(1.50009 0.000723723 0)
(1.5014 0.000661975 0)
(1.50278 0.000615421 0)
(1.5037 0.000583705 0)
(1.50542 0.000567506 0)
(1.51387 0.261598 1.53765e-21)
(1.53799 0.238373 0)
(1.55608 0.214083 7.44169e-24)
(1.56579 0.188763 -7.45961e-23)
(1.56361 0.161654 -1.99856e-20)
(1.54347 0.132783 0)
(1.49877 0.100453 -3.13795e-20)
(1.41779 0.0686688 0)
(1.31007 0.0338553 -4.03914e-20)
(1.12019 0.0218041 6.24057e-22)
(1.49363 0.244012 -2.94037e-21)
(1.51887 0.225047 3.49993e-22)
(1.54007 0.205326 -3.51275e-22)
(1.55556 0.18519 -5.44711e-21)
(1.56394 0.163791 -1.17271e-21)
(1.55988 0.141934 2.15486e-22)
(1.5428 0.116556 0)
(1.49271 0.092017 2.16304e-20)
(1.43927 0.0608592 0)
(1.27398 0.0351407 3.90011e-20)
(1.47366 0.226443 6.46178e-21)
(1.49883 0.210612 0)
(1.52146 0.19437 -3.35387e-22)
(1.54003 0.178283 -4.49792e-21)
(1.55522 0.16141 9.60488e-22)
(1.56073 0.145025 0)
(1.56326 0.125724 -5.02927e-21)
(1.53317 0.106302 -2.20209e-20)
(1.51853 0.0823881 0)
(1.39245 0.0501134 -3.87979e-20)
(1.45531 0.209411 -3.10122e-21)
(1.47963 0.196039 1.24623e-20)
(1.50256 0.182493 0)
(1.52226 0.169353 1.03896e-20)
(1.54135 0.155751 3.43066e-22)
(1.55161 0.142688 -4.22778e-22)
(1.56588 0.127957 5.36071e-21)
(1.54896 0.111339 1.82025e-22)
(1.5573 0.0953773 1.07338e-20)
(1.4746 0.0647578 0)
(1.43891 0.193194 0)
(1.46208 0.18174 -1.21549e-20)
(1.48459 0.170274 -1.32958e-20)
(1.50421 0.159191 1.50121e-21)
(1.52494 0.147999 -8.97625e-22)
(1.53727 0.13687 -3.38348e-22)
(1.55728 0.125791 -1.05533e-20)
(1.55058 0.111353 3.99769e-23)
(1.5693 0.10157 -7.86045e-21)
(1.52399 0.0765779 -1.19645e-20)
(1.42427 0.177791 4.8309e-21)
(1.44628 0.167853 8.88003e-22)
(1.46801 0.158032 -3.26283e-21)
(1.48701 0.148432 7.20366e-22)
(1.50788 0.139152 -1.73801e-20)
(1.5213 0.129405 0)
(1.54293 0.121169 1.12962e-20)
(1.54442 0.108887 -3.30344e-22)
(1.56521 0.10244 1.19429e-21)
(1.54699 0.0838177 1.56586e-20)
(1.41108 0.163089 -4.85e-21)
(1.43207 0.154412 -8.89938e-21)
(1.45289 0.145952 1.3647e-20)
(1.47121 0.137535 -2.38084e-20)
(1.49137 0.129794 -4.48235e-21)
(1.50555 0.121236 -1.61128e-20)
(1.5263 0.114857 5.4647e-22)
(1.53371 0.104658 -8.74551e-22)
(1.55269 0.0994468 -3.78038e-21)
(1.55165 0.0864533 -3.7344e-21)
(1.3991 0.148988 0)
(1.41923 0.141404 1.95454e-20)
(1.43914 0.134104 -1.98459e-21)
(1.45689 0.126716 1.21592e-20)
(1.47594 0.120166 -2.79017e-21)
(1.49064 0.112703 3.41554e-20)
(1.50946 0.107347 -1.42412e-20)
(1.52058 0.0990965 0)
(1.53696 0.094216 0)
(1.54539 0.0855187 0)
(1.38818 0.135388 0)
(1.40759 0.128784 -1.85339e-20)
(1.42664 0.122481 -1.15071e-21)
(1.44392 0.116035 1.39907e-20)
(1.4618 0.110392 2.34039e-20)
(1.47674 0.10397 -2.01808e-20)
(1.49359 0.0991855 1.72799e-20)
(1.50664 0.0926601 -9.19948e-22)
(1.52088 0.0879186 0)
(1.53362 0.0821353 7.97253e-21)
(1.37827 0.122222 6.92285e-22)
(1.39705 0.116505 1.06731e-20)
(1.41531 0.111065 1.6404e-20)
(1.43215 0.105492 -7.71244e-22)
(1.44896 0.100574 1.83126e-21)
(1.4639 0.0951334 -2.52251e-20)
(1.47918 0.0907703 2.25024e-20)
(1.4929 0.0856412 -1.07472e-21)
(1.50568 0.0811062 0)
(1.51973 0.0771569 -1.83531e-20)
(1.36932 0.109451 0)
(1.38752 0.104533 1.10593e-20)
(1.40508 0.0998477 8.70934e-22)
(1.42148 0.0950787 0)
(1.43742 0.0907831 0)
(1.45213 0.0862285 2.24725e-20)
(1.46629 0.0822719 -1.86499e-20)
(1.47993 0.0781984 -1.00556e-21)
(1.49176 0.0739928 5.91219e-22)
(1.50566 0.0711781 1.07685e-20)
(1.36131 0.0970299 0)
(1.37898 0.092833 -2.12188e-20)
(1.39592 0.0888189 -2.2192e-20)
(1.41188 0.0847791 3.25873e-21)
(1.42711 0.0810511 -2.07229e-21)
(1.44145 0.0772618 -1.56384e-21)
(1.45483 0.0737373 2.89106e-21)
(1.46802 0.0704509 1.79712e-20)
(1.47921 0.0666737 1.58583e-21)
(1.49238 0.0645834 -4.62064e-22)
(1.35421 0.0849132 0)
(1.3714 0.0813722 1.1495e-20)
(1.3878 0.0779665 -1.23151e-21)
(1.40333 0.0745804 1.22777e-21)
(1.41798 0.0713847 0)
(1.43188 0.0682461 0)
(1.44467 0.0651768 0)
(1.45729 0.0624963 -2.03571e-20)
(1.46804 0.0591966 1.87276e-20)
(1.48031 0.0575969 0)
(1.34802 0.0730648 0)
(1.36477 0.0701215 7.47125e-21)
(1.38071 0.0672747 9.46544e-21)
(1.39581 0.0644736 1.19966e-20)
(1.41 0.0617819 -2.25494e-21)
(1.42344 0.059201 1.34825e-20)
(1.43578 0.0565923 -1.15992e-20)
(1.44783 0.0544017 0)
(1.45822 0.0515867 1.92082e-21)
(1.46962 0.0503423 -1.7658e-20)
(1.34273 0.0614483 -1.70045e-21)
(1.35909 0.059053 -6.07092e-21)
(1.37463 0.0567248 -1.223e-20)
(1.38934 0.0544512 -8.4468e-21)
(1.40312 0.0522368 0)
(1.41615 0.0501442 -1.70672e-20)
(1.42812 0.0479845 1.6732e-20)
(1.43965 0.046209 -1.58271e-21)
(1.44974 0.0438639 -9.37644e-21)
(1.46037 0.0428923 2.60593e-20)
(1.33832 0.0500273 1.70732e-21)
(1.35433 0.0481389 -4.79715e-21)
(1.36953 0.0462957 4.20256e-21)
(1.3839 0.0445032 -1.02229e-20)
(1.39736 0.04274 0)
(1.41002 0.0410852 0)
(1.42167 0.0393536 1.66264e-21)
(1.43277 0.0379439 -1.56239e-20)
(1.44261 0.0360474 -9.02132e-21)
(1.45259 0.0352953 -9.00356e-21)
(1.33478 0.0387684 0)
(1.3505 0.037353 7.82459e-21)
(1.36541 0.0359655 -2.80326e-21)
(1.3795 0.0346172 9.14886e-21)
(1.39268 0.0332793 2.43548e-21)
(1.40505 0.0320246 -1.94203e-21)
(1.41645 0.0306976 3.62674e-21)
(1.4272 0.0296194 1.08066e-20)
(1.43685 0.0281505 0)
(1.4463 0.0275812 0)
(1.33208 0.0276373 0)
(1.34758 0.0266721 3.22421e-21)
(1.36226 0.0257194 -5.79554e-21)
(1.37613 0.0247889 0)
(1.3891 0.023855 -4.72148e-21)
(1.40125 0.0229732 -1.97983e-21)
(1.41247 0.0220286 -5.47958e-21)
(1.42296 0.0212551 -1.52958e-21)
(1.43248 0.0201932 8.33985e-22)
(1.44155 0.0197767 6.53497e-22)
(1.33025 0.0165835 0)
(1.34557 0.0160647 -3.23621e-21)
(1.3601 0.0155438 -2.88035e-21)
(1.37381 0.0150247 3.92224e-21)
(1.38665 0.0144885 2.22551e-21)
(1.39865 0.0139693 2.12058e-21)
(1.40976 0.0133958 9.18671e-21)
(1.4201 0.0129113 -6.58244e-21)
(1.42954 0.0122392 1.51815e-21)
(1.43839 0.0119477 0)
(1.3293 0.00554077 0)
(1.34454 0.0054265 1.62974e-21)
(1.35898 0.00530274 -1.55155e-21)
(1.37262 0.00516807 1.45995e-21)
(1.38539 0.00501386 0)
(1.39732 0.00485064 -2.19967e-21)
(1.40837 0.00465337 1.84484e-21)
(1.41864 0.00447037 1.58984e-21)
(1.42806 0.0042099 0)
(1.43681 0.00405902 0)
(1.09261 0.424449 0)
(1.08306 0.461502 -1.28523e-19)
(1.07639 0.504829 0)
(1.06959 0.555883 -4.09115e-19)
(1.06017 0.613815 1.6033e-19)
(1.04357 0.675463 7.51883e-21)
(1.00739 0.728758 1.0039e-19)
(0.922133 0.741671 -2.71924e-20)
(0.734205 0.645616 0)
(0.360264 0.327111 7.28691e-20)
(1.1413 0.429471 2.33553e-19)
(1.13792 0.47024 1.28501e-19)
(1.13878 0.51315 -1.12476e-19)
(1.13895 0.563456 1.37585e-19)
(1.1364 0.620154 -9.76576e-20)
(1.12608 0.678779 2.76011e-20)
(1.0932 0.725914 -1.10315e-19)
(1.00419 0.728709 -1.87707e-19)
(0.799384 0.621674 -4.58575e-20)
(0.387398 0.305633 -1.01445e-19)
(1.19214 0.429064 -9.69865e-20)
(1.19496 0.470103 9.70154e-20)
(1.20151 0.512309 1.12456e-19)
(1.20737 0.561381 1.10248e-19)
(1.21061 0.615737 1.05644e-19)
(1.20494 0.669755 9.73322e-20)
(1.17281 0.708832 3.00504e-20)
(1.07706 0.700063 6.55859e-20)
(0.852578 0.582852 1.02306e-20)
(0.405892 0.276715 -9.74864e-21)
(1.24434 0.423682 1.94548e-19)
(1.25217 0.463585 -9.69973e-20)
(1.26313 0.504263 0)
(1.27362 0.551001 0)
(1.28129 0.601566 0)
(1.27811 0.649287 4.76744e-20)
(1.24381 0.678269 -2.18415e-20)
(1.13714 0.657059 0)
(0.89089 0.531617 -7.56676e-21)
(0.414741 0.242138 1.76909e-20)
(1.2954 0.41334 -2.89282e-20)
(1.30748 0.451161 1.19244e-19)
(1.32209 0.489643 0)
(1.33622 0.533047 0)