/*--------------------------------*- C++ -*----------------------------------*\
| =========                 |                                                 |
| \\      /  F ield         | OpenFOAM: The Open Source CFD Toolbox           |
|  \\    /   O peration     | Version:  4.1                                   |
|   \\  /    A nd           | Web:      www.OpenFOAM.org                      |
|    \\/     M anipulation  |                                                 |
\*---------------------------------------------------------------------------*/
FoamFile
{
    version     2.0;
    format      ascii;
    class       volVectorField;
    location    "15";
    object      U;
}
// * * * * * * * * * * * * * * * * * * * * * * * * * * * * * * * * * * * * * //

dimensions      [0 1 -1 0 0 0 0];

internalField   nonuniform List<vector> 
3800
(
(-0.0416197 0.0308662 2.71139e-19)
(-0.0714555 0.0540854 0)
(-0.0558519 0.0569382 4.81058e-19)
(0.00853199 0.051966 2.22526e-19)
(0.12809 0.0473932 -4.18483e-19)
(0.300705 0.0469248 -5.8588e-19)
(0.515722 0.0602639 1.85122e-19)
(0.708586 0.0664192 0)
(0.981344 0.0994435 -1.6378e-19)
(1.08841 0.104915 0)
(-0.0495062 0.0309104 -1.35159e-19)
(-0.0701851 0.0462445 1.29477e-19)
(-0.0219826 0.0425992 -4.87756e-19)
(0.104907 0.037714 -6.76417e-19)
(0.310201 0.0423361 -1.09276e-21)
(0.566893 0.0581086 1.94702e-19)
(0.822038 0.0839524 -1.83292e-19)
(1.06438 0.10584 -1.70944e-19)
(1.26649 0.140408 1.63673e-19)
(1.36688 0.139772 3.10113e-19)
(-0.0558325 0.0299814 1.37998e-19)
(-0.0553011 0.0371324 -1.33267e-19)
(0.0510956 0.0303721 2.43868e-19)
(0.273835 0.0355151 -2.27035e-21)
(0.573554 0.0597095 2.09956e-19)
(0.877692 0.0941927 1.95578e-19)
(1.13635 0.129355 1.82555e-19)
(1.33667 0.157313 1.70858e-19)
(1.44893 0.177466 1.56092e-19)
(1.54503 0.181162 -1.47041e-19)
(-0.0585201 0.0267774 -7.42377e-22)
(-0.0189288 0.0247913 -1.35894e-19)
(0.181131 0.0242014 0)
(0.517571 0.0540997 2.24533e-19)
(0.873789 0.101097 -2.13469e-19)
(1.16444 0.145711 0)
(1.36657 0.179641 0)
(1.47827 0.195768 0)
(1.54127 0.205688 -1.56106e-19)
(1.55804 0.200104 2.91944e-19)
(-0.055402 0.0207147 2.92319e-19)
(0.0508277 0.0103162 7.37859e-22)
(0.382164 0.035296 1.27988e-19)
(0.800034 0.0967479 1.13862e-19)
(1.14202 0.15571 1.0597e-19)
(1.36509 0.196409 9.60609e-20)
(1.48253 0.216286 0)
(1.53749 0.22191 7.96255e-20)
(1.5498 0.221589 -3.66837e-19)
(1.54711 0.209649 4.89884e-19)
(-0.0431354 0.011431 -4.47456e-19)
(0.170174 0.0025791 3.63242e-21)
(0.634533 0.0726354 -2.5532e-19)
(1.0585 0.153952 2.36003e-19)
(1.33186 0.20873 -3.13181e-19)
(1.47286 0.235501 9.93546e-20)
(1.53323 0.243524 0)
(1.54812 0.24167 -7.96516e-20)
(1.54518 0.23444 7.3059e-20)
(1.54124 0.224269 2.58358e-19)
(-0.0153085 0.00031928 0)
(0.350584 0.019103 0)
(0.883949 0.130246 -1.29475e-19)
(1.25309 0.212588 1.21285e-19)
(1.44578 0.253918 -1.02407e-19)
(1.52605 0.268002 9.65883e-20)
(1.54679 0.267275 1.63559e-19)
(1.54345 0.259692 -1.55126e-19)
(1.53232 0.248958 -1.34473e-19)
(1.516 0.237687 6.37705e-20)
(0.0371065 -0.00818073 8.40579e-20)
(0.569704 0.0681324 0)
(1.0914 0.196286 -6.29402e-20)
(1.38397 0.267461 2.37439e-19)
(1.5086 0.294342 -1.59243e-19)
(1.54383 0.297397 0)
(1.54222 0.289689 0)
(1.52812 0.277902 0)
(1.51083 0.263725 -1.27056e-19)
(1.4972 0.25291 1.21141e-19)
(0.118748 -0.00488633 -4.22111e-20)
(0.779449 0.13929 -4.9256e-22)
(1.24803 0.264899 -6.80456e-20)
(1.46484 0.319174 2.92116e-20)
(1.53493 0.331585 2.75669e-20)
(1.54173 0.325512 4.60334e-20)
(1.52715 0.312541 0)
(1.50801 0.296899 -1.65303e-20)
(1.49045 0.281097 -7.40587e-20)
(1.47306 0.269579 5.65787e-20)
(0.226856 0.0173894 0)
(0.953492 0.218828 -3.98749e-20)
(1.35663 0.333246 0)
(1.5072 0.368333 -1.54518e-20)
(1.53832 0.367458 -1.44955e-20)
(1.52715 0.353809 -2.21014e-20)
(1.50596 0.336056 0)
(1.48467 0.317228 1.65369e-20)
(1.46471 0.299575 1.47014e-20)
(1.44771 0.285852 1.22699e-20)
(-0.0104451 0.00953228 0)
(-0.0393481 0.0166475 -3.13463e-20)
(-0.0783829 0.018609 0)
(-0.115365 0.0188832 -4.15879e-20)
(-0.148943 0.0187832 -1.3197e-20)
(-0.179923 0.0187312 2.50849e-20)
(-0.208814 0.0188267 -2.37023e-20)
(-0.236127 0.0190859 2.2888e-20)
(-0.262435 0.0195419 -1.42364e-22)
(-0.288038 0.020215 2.17724e-20)
(-0.0116847 0.0272547 -9.56335e-20)
(-0.0393663 0.0481741 6.15996e-20)
(-0.0751985 0.0542884 -5.81767e-20)
(-0.108632 0.0552573 2.73498e-20)
(-0.138464 0.0549478 1.30268e-19)
(-0.165384 0.0546972 -4.92699e-20)
(-0.189841 0.0548585 0)
(-0.212256 0.0555006 -2.27095e-20)
(-0.233173 0.0567153 -2.18745e-20)
(-0.253254 0.0585607 0)
(-0.0138678 0.0411545 6.37681e-20)
(-0.0394975 0.0746057 0)
(-0.0695529 0.0853938 1.75201e-19)
(-0.0965126 0.0874647 -2.20249e-19)
(-0.119465 0.086957 5.18725e-20)
(-0.13895 0.0862613 0)
(-0.155361 0.0861351 0)
(-0.168977 0.0867793 0)
(-0.180185 0.0883333 1.76553e-19)
(-0.190334 0.0908737 -1.7202e-19)
(-0.0164297 0.0496023 0)
(-0.0398704 0.093352 -1.25372e-19)
(-0.0627519 0.109235 2.34853e-19)
(-0.0813533 0.112953 -1.10344e-19)
(-0.0953198 0.112323 1.05252e-19)
(-0.105128 0.110849 -2.99623e-19)
(-0.111176 0.109873 -1.87883e-21)
(-0.113681 0.109875 1.81472e-19)
(-0.112606 0.111085 1.76397e-19)
(-0.109659 0.113545 -2.56509e-19)
(-0.0188218 0.0522713 1.29883e-19)
(-0.0406732 0.10302 -2.52328e-19)
(-0.0564175 0.123828 -1.95822e-23)
(-0.0660823 0.129593 3.62173e-22)
(-0.0702061 0.128959 1.05791e-19)
(-0.0694145 0.126384 -2.98641e-19)
(-0.0642156 0.123866 0)
(-0.0550418 0.122271 -9.07803e-20)
(-0.0415974 0.122109 8.703e-20)
(-0.0236901 0.124011 -3.42057e-19)
(-0.0207738 0.0500902 -4.92157e-22)
(-0.0422022 0.10373 2.5318e-19)
(-0.0521788 0.128186 1.18282e-19)
(-0.0536825 0.13581 1.11549e-19)
(-0.0483674 0.135174 1.05087e-19)
(-0.0373124 0.131281 9.97043e-20)
(-0.0212132 0.126668 0)
(-0.000764022 0.122609 9.07577e-20)
(0.0240316 0.119906 2.6118e-19)
(0.0585076 0.119195 -8.316e-20)
(-0.0224857 0.0449211 9.25687e-23)
(-0.0449657 0.0971683 1.27464e-19)
(-0.0513838 0.122725 0)
(-0.0464809 0.131046 -2.22963e-19)
(-0.0329946 0.129994 2.09641e-19)
(-0.0125395 0.124654 0)
(0.014327 0.117927 0)
(0.0472213 0.111694 0)
(0.0817012 0.106036 -1.70891e-19)
(0.144443 0.100156 -3.34361e-19)
(-0.0246775 0.0389795 -1.32537e-19)
(-0.0496799 0.0861915 1.27999e-19)
(-0.0546641 0.109498 2.38383e-19)
(-0.0449337 0.116491 -1.57715e-22)
(-0.0237163 0.114161 2.08707e-19)
(0.00765558 0.107343 1.96639e-19)
(0.0502669 0.0991829 1.8607e-19)
(0.10615 0.0934443 1.76838e-19)
(0.154806 0.0856407 1.70849e-19)
(0.282134 0.0789458 -1.62537e-19)
(-0.028333 0.0341712 -4.00115e-19)
(-0.0567896 0.073985 -1.27507e-19)
(-0.0607921 0.0918785 -4.76111e-19)
(-0.0449231 0.0954472 -2.22086e-19)
(-0.0110723 0.0910776 -4.12875e-22)
(0.041858 0.0832263 -1.96816e-19)
(0.11857 0.0755763 1.84356e-19)
(0.218515 0.0739 -1.76783e-19)
(0.302216 0.0674169 1.68015e-19)
(0.526631 0.0713902 -3.20008e-19)
(-0.0340907 0.0315348 2.67078e-19)
(-0.065221 0.0629892 0)
(-0.0645638 0.0735224 2.38937e-19)
(-0.0339406 0.0724979 5.31921e-22)
(0.0288418 0.0664254 5.23595e-22)
(0.127464 0.0594568 1.949e-19)
(0.267815 0.0584803 -5.54324e-19)
(0.418581 0.0602633 0)
(0.590666 0.0672717 -1.67893e-19)
(0.839463 0.085278 0)
(-0.32161 0.0212458 0)
(-0.364775 0.0198366 0)
(-0.404562 0.0194948 0)
(-0.444046 0.0187564 8.79011e-22)
(-0.481551 0.0181655 0)
(-0.518003 0.0174368 0)
(-0.552689 0.0166858 -1.56579e-20)
(-0.585875 0.0158504 -4.49269e-22)
(-0.617206 0.0149693 5.83122e-22)
(-0.646753 0.014034 -4.25221e-22)
(-0.674332 0.0130645 1.7049e-20)
(-0.699964 0.0120659 1.10515e-21)
(-0.723562 0.0110503 1.12921e-21)
(-0.745144 0.0100225 0)
(-0.764673 0.00898667 0)
(-0.782175 0.00794149 0)
(-0.797649 0.00688583 -1.93031e-20)
(-0.811134 0.0058196 1.93258e-20)
(-0.822648 0.00475282 0)
(-0.832109 0.003707 0)
(-0.839304 0.00262549 0)
(-0.844056 0.00149765 1.95598e-20)
(-0.846181 0.00030638 -1.95829e-20)
(-0.845585 -0.00108911 -2.04132e-20)
(-0.842179 -0.00259853 1.80293e-20)
(-0.83559 -0.00425218 1.17472e-21)
(-0.825515 -0.00604681 1.80443e-20)
(-0.811624 -0.00798014 -1.80657e-20)
(-0.793598 -0.0100422 1.6787e-20)
(-0.771165 -0.012208 -1.68071e-20)
(-0.744104 -0.0144416 0)
(-0.712282 -0.0166921 -1.41498e-20)
(-0.675697 -0.0188893 1.41668e-20)
(-0.634439 -0.0209854 -1.19834e-20)
(-0.588754 -0.0228951 1.19978e-20)
(-0.53904 -0.0245546 0)
(-0.485801 -0.0259186 -8.4778e-21)
(-0.429643 -0.0269753 8.48804e-21)
(-0.371236 -0.0276451 0)
(-0.311371 -0.0279654 0)
(-0.250691 -0.0280064 0)
(-0.189961 -0.0276619 0)
(-0.129816 -0.0270827 -1.91375e-22)
(-0.0706563 -0.0263778 1.46821e-22)
(-0.013037 -0.0253827 -1.08298e-22)
(0.0425991 -0.024275 0)
(0.096053 -0.0230831 0)
(0.147082 -0.0218338 0)
(0.195534 -0.0205565 -3.77218e-24)
(0.241328 -0.0192778 -9.8426e-23)
(0.28444 -0.0180201 1.02328e-22)
(0.324892 -0.0168012 0)
(0.362743 -0.0156358 0)
(0.39808 -0.0145338 0)
(0.431006 -0.0134989 0)
(0.461651 -0.0125303 3.04382e-22)
(0.490136 -0.011628 -3.04757e-22)
(0.516616 -0.0107904 0)
(0.54121 -0.010017 0)
(0.564085 -0.00930387 0)
(0.585331 -0.00864978 -1.26566e-22)
(0.605139 -0.00804877 1.26723e-22)
(0.623542 -0.00750046 0)
(0.640777 -0.00699713 -1.02165e-22)
(0.656781 -0.00654048 1.96441e-22)
(0.671886 -0.00612037 -7.89046e-24)
(0.685861 -0.00574215 -8.64828e-23)
(0.699234 -0.00539175 0)
(0.711471 -0.00508048 0)
(0.723481 -0.00478764 0)
(0.734187 -0.00453406 2.61489e-23)
(0.745201 -0.00428802 -3.00137e-24)
(0.754472 -0.00408549 -2.32094e-23)
(0.764908 -0.00387669 -1.75364e-23)
(0.772689 -0.00372148 1.75584e-23)
(0.783089 -0.0035413 -6.02849e-24)
(0.789089 -0.00343307 6.03609e-24)
(0.80025 -0.00327352 -1.60756e-24)
(0.803783 -0.00321605 1.16969e-24)
(0.816965 -0.00306934 4.02775e-25)
(-0.279661 0.0613399 5.08219e-20)
(-0.319822 0.0574313 -5.38849e-20)
(-0.354939 0.0563094 -1.70411e-21)
(-0.390453 0.0543154 -2.6344e-21)
(-0.424106 0.0525914 -1.81215e-21)
(-0.456861 0.0505098 -1.86962e-21)
(-0.488024 0.048312 -6.45154e-20)
(-0.517777 0.0458767 6.06672e-20)
(-0.545812 0.0432881 -3.0672e-21)
(-0.572149 0.0405419 -2.10253e-21)
(-0.596629 0.0376882 -7.1922e-20)
(-0.61925 0.0347501 6.87373e-20)
(-0.639936 0.0317622 -1.12668e-21)
(-0.658696 0.028743 0)
(-0.675503 0.0257057 0)
(-0.690373 0.0226494 0)
(-0.703308 0.0195675 0)
(-0.714333 0.0164537 0)
(-0.72345 0.0133205 7.82645e-20)
(-0.730619 0.0101956 -7.83498e-20)
(-0.735662 0.00699559 -7.60453e-20)
(-0.738384 0.00362825 3.45915e-22)
(-0.738823 9.83931e-05 7.83323e-20)
(-0.736665 -0.00391699 8.05132e-20)
(-0.731808 -0.00830724 -3.79066e-20)
(-0.723962 -0.0131042 -3.90774e-20)
(-0.712838 -0.0183258 3.61826e-20)
(-0.698129 -0.0239637 -7.12722e-20)
(-0.679531 -0.029988 6.88e-20)
(-0.656782 -0.0363243 -3.37487e-20)
(-0.629667 -0.0428604 0)
(-0.598049 -0.0494547 3.03491e-20)
(-0.561977 -0.0559024 -2.85197e-20)
(-0.52149 -0.0620743 0)
(-0.476845 -0.0677006 0)
(-0.428435 -0.0725839 -1.81912e-20)
(-0.376756 -0.0765854 2.37503e-21)
(-0.322408 -0.0798073 1.81811e-20)
(-0.266044 -0.0817174 8.72201e-22)
(-0.208558 -0.0826543 7.37718e-22)
(-0.150268 -0.0828607 0)
(-0.0921228 -0.0817467 4.98286e-22)
(-0.0348725 -0.0799632 5.86424e-22)
(0.0213908 -0.0775644 4.28766e-21)
(0.0761289 -0.0746982 -1.0379e-21)
(0.128699 -0.071434 -2.82863e-21)
(0.179054 -0.067891 1.33391e-21)
(0.226992 -0.0641751 -1.16856e-21)
(0.272379 -0.0603791 0)
(0.315152 -0.056582 0)
(0.3553 -0.05285 -2.69795e-23)
(0.392859 -0.049234 0)
(0.427897 -0.0457744 -5.51984e-23)
(0.460514 -0.0424986 -6.13309e-22)
(0.49082 -0.0394243 4.82938e-22)
(0.518949 -0.0365534 7.02434e-23)
(0.545022 -0.0338857 5.10105e-22)
(0.569192 -0.0314132 -8.43922e-23)
(0.591578 -0.0291335 -6.35057e-22)
(0.612343 -0.0270337 -5.19785e-22)
(0.631578 -0.0251106 9.4958e-22)
(0.649466 -0.0233457 -5.49262e-22)
(0.666044 -0.0217382 -4.82556e-22)
(0.681536 -0.020264 3.20574e-23)
(0.695884 -0.018929 3.50747e-22)
(0.709406 -0.0177015 -4.2815e-23)
(0.721882 -0.016599 0)
(0.733814 -0.0155773 -1.75252e-22)
(0.744698 -0.014673 -1.90788e-23)
(0.755389 -0.0138207 1.26421e-22)
(0.764879 -0.013087 1.0165e-22)
(0.774674 -0.0123717 -1.25212e-22)
(0.782865 -0.011789 -2.06459e-23)
(0.792151 -0.0111823 1.60538e-23)
(0.799003 -0.0107396 -1.87797e-23)
(0.808271 -0.0102159 -1.28098e-23)
(0.813534 -0.00991178 -1.05301e-24)
(0.823498 -0.00944848 -1.03752e-23)
(0.826582 -0.00929106 -4.53737e-24)
(0.838344 -0.00887088 -3.37381e-24)
(-0.204972 0.0946693 1.62975e-21)
(-0.238352 0.0892998 1.67173e-21)
(-0.265563 0.0872979 1.13552e-19)
(-0.293824 0.0846188 -1.1016e-19)
(-0.320874 0.0819947 -1.17106e-19)
(-0.347251 0.0788609 1.22821e-19)
(-0.372458 0.0754277 3.89277e-21)
(-0.396474 0.071609 4.0117e-21)
(-0.419074 0.0674949 -7.35558e-25)
(-0.440191 0.0631147 2.12155e-21)
(-0.459696 0.0585381 1.43184e-19)
(-0.477545 0.0538185 -1.41139e-19)
(-0.493673 0.0490135 7.36037e-20)
(-0.508068 0.0441642 1.27816e-21)
(-0.520709 0.0392984 -1.51164e-19)
(-0.531605 0.034423 7.62142e-20)
(-0.540758 0.029527 0)
(-0.548174 0.0245881 0)
(-0.553836 0.0195864 -7.91457e-20)
(-0.557734 0.0145153 7.92202e-20)
(-0.559735 0.00938102 7.69574e-20)
(-0.559622 0.00392903 -2.9858e-22)
(-0.557716 -0.00181452 -7.92883e-20)
(-0.553466 -0.0081218 7.54928e-20)
(-0.546781 -0.0150475 -7.80101e-20)
(-0.537422 -0.0226165 7.53961e-20)
(-0.525139 -0.0308766 -7.54674e-20)
(-0.509645 -0.0398317 0)
(-0.490653 -0.0494371 7.09466e-20)
(-0.467901 -0.0595722 -6.88023e-20)
(-0.441191 -0.0700415 6.01947e-20)
(-0.410334 -0.0806661 -1.22506e-19)
(-0.375539 -0.0910769 5.84151e-20)
(-0.336739 -0.101088 4.9688e-20)
(-0.294221 -0.110258 -4.97355e-20)
(-0.248402 -0.118244 -1.31673e-21)
(-0.199811 -0.124718 0)
(-0.148476 -0.130459 -1.01903e-21)
(-0.0954574 -0.133171 2.45162e-20)
(-0.0422362 -0.134518 -4.97262e-21)
(0.0117794 -0.134136 -2.21173e-20)
(0.0659723 -0.132382 -1.57251e-20)
(0.118804 -0.129469 1.43141e-20)
(0.170253 -0.125389 8.21449e-21)
(0.220052 -0.120662 -9.11019e-21)
(0.267775 -0.115276 -1.62182e-22)
(0.313244 -0.109427 -1.06496e-22)
(0.356314 -0.103302 -1.37757e-22)
(0.396893 -0.0970576 -2.40317e-22)
(0.434945 -0.0908227 2.31995e-22)
(0.470483 -0.0847039 2.70576e-23)
(0.503557 -0.0787819 7.26156e-22)
(0.53425 -0.0731193 -6.26278e-22)
(0.562667 -0.067756 6.32533e-23)
(0.588928 -0.0627227 6.80536e-23)
(0.61317 -0.05803 -1.15638e-21)
(0.635521 -0.0536826 2.2435e-21)
(0.656125 -0.0496657 -1.01686e-21)
(0.675099 -0.0459719 1.0971e-21)
(0.6926 -0.0425774 -1.03035e-21)
(0.708718 -0.039476 6.16409e-23)
(0.723623 -0.0366359 5.80163e-23)
(0.737356 -0.0340559 5.42254e-23)
(0.750123 -0.0316949 -3.78068e-22)
(0.761878 -0.0295629 7.73865e-22)
(0.772908 -0.0276062 -3.0636e-22)
(0.783022 -0.0258546 3.68553e-23)
(0.792666 -0.0242337 -2.30767e-22)
(0.801405 -0.0228046 2.99265e-22)
(0.809983 -0.0214587 2.76162e-23)
(0.817534 -0.0203061 1.94363e-22)
(0.825355 -0.0191823 -1.49021e-22)
(0.831818 -0.018273 9.61496e-23)
(0.839218 -0.017325 -5.75876e-23)
(0.844581 -0.0166399 -1.53141e-23)
(0.851971 -0.0158273 2.52338e-24)
(0.856058 -0.0153615 3.24228e-23)
(0.864015 -0.0146508 1.63675e-24)
(0.866387 -0.0144126 5.92385e-24)
(0.87577 -0.0137823 1.81361e-24)
(-0.111648 0.117491 1.64543e-21)
(-0.133962 0.112401 1.11784e-19)
(-0.151512 0.110076 3.17855e-21)
(-0.170275 0.107476 -2.32067e-19)
(-0.189109 0.104742 2.35595e-19)
(-0.207677 0.100937 -1.22519e-19)
(-0.225736 0.0966797 -1.97416e-21)
(-0.243033 0.0918447 -1.36078e-19)
(-0.25939 0.0865423 2.70003e-19)
(-0.274662 0.0808397 -1.38047e-19)
(-0.288713 0.074826 1.40769e-19)
(-0.30145 0.0685891 -1.43076e-19)
(-0.312798 0.0622147 -1.46988e-19)
(-0.322711 0.0557696 3.01451e-19)
(-0.331156 0.0493034 -1.49758e-19)
(-0.338123 0.042843 0)
(-0.343606 0.0363876 0)
(-0.3476 0.0299096 1.59708e-19)
(-0.350078 0.0233551 -1.57314e-19)
(-0.350965 0.0166597 0)
(-0.350215 0.00980813 0)
(-0.347633 0.0027391 0)
(-0.343627 -0.00499087 0)
(-0.337585 -0.0132774 2.50138e-21)
(-0.329411 -0.0223075 0)
(-0.318906 -0.0321916 -1.53837e-19)
(-0.305852 -0.0430166 3.60972e-21)
(-0.289991 -0.0548171 6.73899e-21)
(-0.271049 -0.0675603 1.43914e-19)
(-0.248767 -0.0811179 1.34893e-19)
(-0.223061 -0.0952387 -1.32951e-19)
(-0.193478 -0.109797 -6.01854e-20)
(-0.160269 -0.123949 6.02286e-20)
(-0.123571 -0.137356 5.14875e-20)
(-0.0837463 -0.149806 -5.15247e-20)
(-0.0412904 -0.160777 1.4111e-21)
(0.00242863 -0.169602 0)
(0.0498021 -0.175799 0)
(0.0994825 -0.179788 1.87343e-21)
(0.148087 -0.181743 0)
(0.196559 -0.180941 -1.8702e-20)
(0.244823 -0.178511 4.15386e-21)
(0.291993 -0.174495 3.22612e-21)
(0.337671 -0.168993 2.26588e-20)
(0.381589 -0.162375 -9.22651e-21)
(0.42347 -0.154894 0)
(0.463151 -0.146813 3.71224e-21)
(0.500531 -0.138375 -3.48756e-21)
(0.535557 -0.129794 1.03704e-21)
(0.568222 -0.121243 -1.02924e-21)
(0.598558 -0.112866 0)
(0.62663 -0.10477 -1.61406e-23)
(0.652528 -0.0970379 -4.54292e-23)
(0.676358 -0.0897229 0)
(0.698241 -0.0828624 0)
(0.718305 -0.0764696 -5.19359e-23)
(0.736679 -0.070555 0)
(0.753498 -0.0651027 5.47949e-23)
(0.768876 -0.0601033 9.28184e-22)
(0.78295 -0.0555209 -9.28891e-22)
(0.795808 -0.051345 0)
(0.807599 -0.0475302 8.47998e-22)
(0.818371 -0.0440739 -8.00506e-22)
(0.828298 -0.0409191 -4.23555e-23)
(0.837357 -0.0380784 0)
(0.845784 -0.0354788 0)
(0.853439 -0.0331583 -7.02947e-23)
(0.860682 -0.0310182 0)
(0.867178 -0.0291364 0)
(0.87352 -0.0273719 1.74058e-22)
(0.879038 -0.0258634 -4.39642e-23)
(0.884745 -0.0244024 -2.02693e-22)
(0.889393 -0.0232193 1.2251e-22)
(0.894742 -0.0220001 -1.40399e-22)
(0.898541 -0.0211129 3.77843e-23)
(0.903857 -0.0200833 -6.30693e-23)
(0.906711 -0.019481 0)
(0.912424 -0.0185991 0)
(0.914058 -0.0182893 -6.8378e-24)
(0.920777 -0.0175274 2.63741e-24)
(-0.0141719 0.126899 2.09137e-19)
(-0.0220577 0.12467 1.70173e-21)
(-0.0285907 0.123414 1.15066e-19)
(-0.0364217 0.121752 -1.09652e-19)
(-0.0457279 0.11932 1.88685e-21)
(-0.0560559 0.11569 -1.22331e-19)
(-0.0664453 0.111325 1.26248e-19)
(-0.0767581 0.106129 -1.31985e-19)
(-0.0867808 0.100234 1.38344e-19)
(-0.0963143 0.0937449 2.18855e-21)
(-0.105174 0.0867719 2.24568e-21)
(-0.113209 0.0794365 0)
(-0.120304 0.0718553 2.3373e-21)
(-0.126374 0.0641303 -1.54603e-19)
(-0.131343 0.0563456 1.57096e-19)
(-0.135154 0.0485559 0)
(-0.137767 0.0407814 1.61095e-19)
(-0.139147 0.0330071 -1.61161e-19)
(-0.139249 0.0251796 -1.66125e-19)
(-0.137981 0.0172017 1.63645e-19)
(-0.135161 0.00890421 5.14298e-21)
(-0.130884 0.000311729 0)
(-0.125366 -0.00898579 0)
(-0.117881 -0.0188993 -2.53667e-21)
(-0.108501 -0.0296831 5.05097e-21)
(-0.0970201 -0.0415101 0)
(-0.0832304 -0.0545055 0)
(-0.066914 -0.0687349 2.41582e-21)
(-0.0478502 -0.0841884 1.44841e-19)
(-0.0258157 -0.100765 -1.40425e-19)
(-0.00124055 -0.118219 0)
(0.0265458 -0.135577 4.05815e-21)
(0.0587469 -0.152572 0)
(0.0940114 -0.169038 3.53802e-21)
(0.131466 -0.184445 0)
(0.171002 -0.198172 -1.42566e-21)
(0.211524 -0.20921 0)
(0.253614 -0.215832 2.32977e-21)
(0.29702 -0.220963 -5.97444e-20)
(0.340141 -0.22326 6.05482e-20)
(0.382672 -0.22266 -6.92836e-22)
(0.424417 -0.219574 -1.59431e-20)
(0.464909 -0.214369 3.10372e-20)
(0.503815 -0.207376 -1.38623e-20)
(0.540935 -0.198988 -2.82857e-22)
(0.576103 -0.189558 -5.78755e-21)
(0.609214 -0.179414 6.13136e-21)
(0.640214 -0.168853 0)
(0.669094 -0.158134 1.77383e-22)
(0.695873 -0.147472 0)
(0.720607 -0.137042 0)
(0.743369 -0.126975 1.62295e-23)
(0.764253 -0.117373 0)
(0.783361 -0.108299 1.17736e-21)
(0.800809 -0.0997971 -1.17791e-21)
(0.816711 -0.0918814 5.21591e-23)
(0.831183 -0.084562 0)
(0.844341 -0.0778206 -5.49971e-23)
(0.856291 -0.0716487 0)
(0.867145 -0.0660031 0)
(0.876986 -0.0608686 -8.16886e-22)
(0.88593 -0.0561877 6.85057e-22)
(0.894027 -0.0519547 -7.66176e-23)
(0.901411 -0.0480998 5.82392e-22)
(0.908083 -0.0446354 -1.24815e-21)
(0.914215 -0.0414741 5.05943e-22)
(0.919727 -0.0386575 -4.48235e-22)
(0.924873 -0.03607 4.81899e-22)
(0.929437 -0.0337974 0)
(0.933833 -0.0316791 0)
(0.937613 -0.0298671 2.25953e-23)
(0.941475 -0.0281289 1.0805e-22)
(0.944581 -0.0267149 -2.5152e-22)
(0.948126 -0.0252819 9.86224e-23)
(0.950606 -0.0242253 1.31847e-23)
(0.954076 -0.0230354 1.78161e-23)
(0.955901 -0.0223183 -3.71776e-23)
(0.959596 -0.0213221 0)
(0.960623 -0.0209506 -2.97198e-24)
(0.964946 -0.0201124 -2.38301e-24)
(0.0763221 0.121704 0)
(0.0839516 0.124709 -3.51996e-21)
(0.0888555 0.126122 2.33969e-19)
(0.091944 0.1262 -2.37706e-19)
(0.0931817 0.125023 0)
(0.0923861 0.122805 2.52535e-19)
(0.0902137 0.119324 1.2057e-20)
(0.0871841 0.11466 -2.64524e-19)
(0.0836253 0.10902 -8.63514e-21)
(0.0797863 0.102519 -2.88271e-19)
(0.0759129 0.0952754 2.92817e-19)
(0.0722245 0.087437 -2.97998e-19)
(0.0688996 0.0791548 6.06976e-19)
(0.0660853 0.0705722 -3.09113e-19)
(0.0639135 0.0618159 -4.97161e-21)
(0.062506 0.0529757 5.02911e-21)
(0.0619726 0.044101 0)
(0.0624207 0.0351984 0)
(0.0639498 0.0262158 -1.6688e-19)
(0.066628 0.017057 1.72109e-19)
(0.0707143 0.00753603 2.50688e-24)
(0.0762042 -0.00255491 -1.67642e-19)
(0.0830014 -0.0131612 1.67645e-19)
(0.091611 -0.0245192 0)
(0.102115 -0.0368619 -5.13893e-21)
(0.114697 -0.0504001 0)
(0.129562 -0.065294 5.00939e-21)
(0.146904 -0.0816272 -1.53913e-19)
(0.166879 -0.0993823 1.53956e-19)
(0.189673 -0.118481 -4.54275e-21)
(0.215115 -0.138781 0)
(0.242743 -0.158598 7.22131e-23)
(0.273487 -0.177915 -1.16652e-19)
(0.306852 -0.196978 5.44286e-21)
(0.341974 -0.214639 1.11568e-19)
(0.37832 -0.230078 -9.21282e-20)
(0.415203 -0.242578 9.21314e-20)
(0.452507 -0.251367 -7.21177e-20)
(0.489914 -0.256949 7.22239e-20)
(0.526635 -0.25918 1.01452e-22)
(0.562276 -0.258143 -1.59256e-21)
(0.596656 -0.254238 -1.24346e-21)
(0.629574 -0.247896 3.19206e-20)
(0.660847 -0.239524 -2.99008e-20)
(0.690368 -0.229555 0)
(0.718068 -0.218404 8.13918e-23)
(0.743917 -0.206454 0)
(0.767919 -0.194049 4.40025e-21)
(0.79011 -0.181486 -3.99707e-21)
(0.810541 -0.169012 0)
(0.82929 -0.156826 1.11042e-22)
(0.846437 -0.14508 0)
(0.862082 -0.133888 0)
(0.876318 -0.123321 -5.70399e-22)
(0.889251 -0.11343 5.4468e-22)
(0.900976 -0.104229 -1.04646e-21)
(0.911594 -0.0957264 2.17828e-21)
(0.921193 -0.0878992 5.63653e-24)
(0.929866 -0.080737 -2.45102e-21)
(0.937693 -0.0741923 1.20672e-21)
(0.944748 -0.068247 8.42328e-23)
(0.951107 -0.0628351 6.16591e-23)
(0.956825 -0.0579465 7.6824e-23)
(0.961983 -0.0535021 7.23245e-23)
(0.966605 -0.0495116 1.37966e-23)
(0.970792 -0.0458783 6.27242e-23)
(0.974523 -0.0426432 0)
(0.977941 -0.0396812 -4.33137e-23)
(0.980948 -0.0370795 -3.39249e-22)
(0.983775 -0.0346678 6.10223e-22)
(0.986191 -0.0326007 -3.12013e-23)
(0.988588 -0.0306365 -2.70085e-22)
(0.990511 -0.029029 0)
(0.992634 -0.0274266 -6.60234e-23)
(0.994123 -0.0262287 7.37703e-23)
(0.99614 -0.0249178 1.93004e-23)
(0.997205 -0.0241053 0)
(0.999313 -0.0230292 9.43136e-24)
(0.999901 -0.0226068 4.67589e-24)
(1.00235 -0.0217215 2.4062e-24)
(0.166007 0.104413 2.13738e-19)
(0.182461 0.112902 -2.28296e-19)
(0.194648 0.117712 2.3175e-19)
(0.206279 0.120219 2.4551e-19)
(0.216921 0.121836 -2.45405e-19)
(0.225355 0.122003 2.61137e-19)
(0.231719 0.120262 -5.34493e-19)
(0.236515 0.116879 5.4673e-19)
(0.239994 0.112172 -5.54357e-19)
(0.242348 0.106302 2.85596e-19)
(0.243845 0.0994215 -4.67049e-21)
(0.244764 0.0917123 -4.78571e-21)
(0.245353 0.0833545 0)
(0.245832 0.0745105 0)
(0.246411 0.065325 0)
(0.247294 0.0559093 -1.02838e-20)
(0.248675 0.0463352 0)
(0.25074 0.0366324 3.38821e-19)
(0.2537 0.0267478 -3.3866e-19)
(0.257654 0.0166229 -5.34933e-21)
(0.262904 0.0061006 -5.3647e-21)
(0.26958 -0.00519274 0)
(0.277737 -0.0170469 0)
(0.287719 -0.0297545 0)
(0.299691 -0.0435585 0)
(0.313823 -0.05868 0)
(0.330298 -0.0752955 -5.11033e-21)
(0.34926 -0.0934902 -1.63279e-19)
(0.370766 -0.11322 1.58205e-19)
(0.394849 -0.13429 0)
(0.421276 -0.156388 0)
(0.449636 -0.178736 -4.26347e-21)
(0.480042 -0.200621 -8.0895e-21)
(0.511997 -0.221551 1.16181e-19)
(0.544727 -0.240709 -9.52587e-21)
(0.577631 -0.257297 -1.09773e-19)
(0.610145 -0.270546 8.65797e-20)
(0.641923 -0.279945 -8.90394e-20)
(0.672726 -0.285593 0)
(0.702213 -0.287545 -1.89142e-21)
(0.73016 -0.285987 5.07997e-20)
(0.756495 -0.281302 -4.91674e-20)
(0.781194 -0.273954 -3.5432e-20)
(0.804235 -0.264408 3.33724e-20)
(0.825621 -0.253136 0)
(0.845377 -0.240593 1.73355e-20)
(0.863553 -0.227198 -1.79134e-20)
(0.88021 -0.213328 -7.62231e-22)
(0.895427 -0.199307 -2.4796e-22)
(0.909288 -0.185405 5.5778e-21)
(0.921888 -0.171842 -5.6878e-21)
(0.933315 -0.158782 0)
(0.943666 -0.146349 -8.17041e-23)
(0.953025 -0.13462 2.25669e-24)
(0.961483 -0.123649 2.36893e-23)
(0.96911 -0.113448 3.92261e-23)
(0.97599 -0.104027 -5.00254e-23)
(0.982178 -0.095359 7.61225e-22)
(0.987749 -0.0874285 -6.42741e-22)
(0.992746 -0.080184 0)
(0.997234 -0.0736054 0)
(1.00125 -0.0676224 -6.18858e-23)
(1.00484 -0.0622212 0)
(1.00804 -0.0573167 -7.61836e-22)
(1.01089 -0.0529149 9.27126e-23)
(1.01343 -0.0489136 7.22454e-22)
(1.01567 -0.0453507 0)
(1.01767 -0.0420969 1.11369e-23)
(1.01943 -0.0392364 -2.68843e-22)
(1.02101 -0.0365962 3.04975e-22)
(1.02237 -0.0343278 2.21228e-22)
(1.02364 -0.0321884 -1.91779e-22)
(1.02467 -0.0304281 1.07421e-22)
(1.02572 -0.028696 -1.15972e-23)
(1.02649 -0.0273866 -5.6144e-23)
(1.02743 -0.0259848 5.20421e-23)
(1.02796 -0.0250978 -5.20223e-23)
(1.0289 -0.023964 -1.68136e-23)
(1.02919 -0.0235027 0)
(1.03028 -0.0225849 1.90193e-24)
(0.293798 0.0863418 3.53529e-21)
(0.303073 0.097385 -2.41262e-19)
(0.310174 0.102398 -8.46653e-21)
(0.320884 0.105848 -5.38063e-21)
(0.333691 0.109833 -7.91125e-21)
(0.346048 0.112763 2.60419e-19)
(0.357456 0.113815 0)
(0.367979 0.113119 2.85363e-19)
(0.377427 0.110793 -2.87426e-19)
(0.385642 0.106884 0)
(0.392668 0.10153 3.07635e-19)
(0.39866 0.0949272 -6.22441e-19)
(0.403802 0.0872795 3.14797e-19)
(0.408311 0.0787756 0)
(0.412416 0.0695932 0)
(0.416382 0.0598832 5.28208e-21)
(0.420471 0.0497469 0)
(0.424924 0.0392635 3.46868e-19)
(0.43011 0.0284273 2.94785e-21)
(0.436102 0.017177 -3.49072e-19)
(0.443226 0.00555311 3.51939e-19)
(0.451825 -0.00702117 -3.51563e-19)
(0.462072 -0.0202832 0)
(0.474147 -0.0345272 0)
(0.488268 -0.0499002 0)
(0.504587 -0.0666211 0)
(0.523224 -0.0848719 0)
(0.544236 -0.104719 0)
(0.567554 -0.126098 0)
(0.593015 -0.148798 0)
(0.6203 -0.172442 -2.3375e-21)
(0.648879 -0.196279 -1.38175e-19)
(0.678314 -0.219553 1.42189e-19)
(0.70803 -0.241561 0)
(0.737339 -0.261506 1.11284e-19)
(0.765653 -0.27861 -2.09236e-19)
(0.792528 -0.292219 9.97165e-20)
(0.817712 -0.301893 1.37203e-21)
(0.841104 -0.307542 -1.21878e-21)
(0.862626 -0.309243 6.21827e-20)
(0.882254 -0.307243 -6.21246e-20)
(0.900062 -0.301945 -4.54817e-20)
(0.916177 -0.293826 4.54402e-20)
(0.93071 -0.283375 0)
(0.94377 -0.27109 -4.77836e-22)
(0.955464 -0.257452 2.1598e-20)
(0.965907 -0.242914 -2.15066e-20)
(0.975216 -0.227878 6.86677e-22)
(0.983511 -0.212697 -1.06521e-20)
(0.990899 -0.197661 1.82467e-20)
(0.99749 -0.183007 -7.84041e-21)
(1.00337 -0.168911 -9.66719e-23)
(1.00864 -0.155504 1.5469e-22)
(1.01336 -0.142868 -5.25384e-23)
(1.01759 -0.131056 0)
(1.02139 -0.120084 -2.53094e-22)
(1.0248 -0.109955 2.67909e-22)
(1.02786 -0.100641 -2.22254e-23)
(1.03062 -0.0921237 1.53255e-24)
(1.03307 -0.084346 2.66897e-24)
(1.03527 -0.0772846 -5.70525e-24)
(1.03722 -0.0708662 7.81878e-24)
(1.03896 -0.0650739 4.80782e-22)
(1.04047 -0.0598198 -4.80343e-22)
(1.04182 -0.0551063 -4.72769e-22)
(1.04297 -0.0508283 1.60371e-23)
(1.04399 -0.0470195 4.55885e-22)
(1.04484 -0.0435487 -1.6234e-22)
(1.04559 -0.0404959 1.94877e-22)
(1.04619 -0.0376876 -1.66985e-22)
(1.04672 -0.0352706 1.67462e-22)
(1.04712 -0.0330036 -1.37315e-22)
(1.04748 -0.031131 2.53615e-22)
(1.04774 -0.0293052 -1.28814e-22)
(1.04798 -0.0279147 -4.78331e-23)
(1.04814 -0.0264482 8.6914e-23)
(1.04828 -0.0255077 -5.41228e-23)
(1.0484 -0.0243332 2.50494e-23)
(1.04847 -0.0238448 -1.63523e-24)
(1.04861 -0.0229049 5.03951e-25)
(0.513294 0.0848861 2.28333e-19)
(0.497559 0.095387 0)
(0.485098 0.0965563 1.94809e-21)
(0.481795 0.0975278 -1.99957e-21)
(0.484765 0.0995974 -2.64581e-19)
(0.490543 0.100988 5.37729e-19)
(0.498165 0.101436 8.79349e-21)
(0.507167 0.101044 7.83196e-21)
(0.516837 0.0995881 -2.8883e-19)
(0.526586 0.096858 0)
(0.536084 0.0928188 0)
(0.545154 0.0875263 1.2343e-21)
(0.553718 0.081077 3.30471e-19)
(0.561804 0.073593 -3.29882e-19)
(0.569505 0.0652077 0)
(0.576993 0.0560464 1.33927e-21)
(0.584515 0.0462116 0)
(0.592231 0.0357443 0)
(0.60059 0.0246903 0)
(0.609679 0.0129938 -3.60765e-19)
(0.619695 0.000539187 7.21709e-19)
(0.6312 -0.0121345 -3.60939e-19)
(0.644202 -0.0261993 0)
(0.658991 -0.0415922 3.57847e-19)
(0.675699 -0.0582061 -3.57211e-19)
(0.694362 -0.0762329 0)
(0.714995 -0.0958108 0)
(0.737528 -0.116958 -1.32233e-21)
(0.761737 -0.139575 3.25362e-19)
(0.787274 -0.163407 -3.24784e-19)
(0.813689 -0.18803 2.39539e-21)
(0.840387 -0.21278 0)
(0.866781 -0.236867 1.34694e-19)
(0.892266 -0.259524 -1.3446e-19)
(0.916243 -0.279959 0)
(0.938274 -0.297408 1.06374e-19)
(0.958106 -0.311243 -1.05437e-19)
(0.975655 -0.321049 -8.77103e-20)
(0.990975 -0.326674 8.80582e-20)
(1.00416 -0.328161 -6.6592e-20)
(1.01532 -0.325771 6.75566e-20)
(1.02462 -0.319912 0)
(1.03228 -0.311062 -3.73279e-22)
(1.03851 -0.299738 0)
(1.04349 -0.286472 -2.93743e-20)
(1.0474 -0.271782 4.72888e-21)
(1.05042 -0.256157 2.52424e-20)
(1.05273 -0.24003 1.63894e-20)
(1.05447 -0.223779 -1.64176e-20)
(1.05578 -0.207714 1.65172e-22)
(1.05678 -0.192084 -8.55487e-21)
(1.05755 -0.177072 2.01852e-21)
(1.05817 -0.162814 6.52956e-21)
(1.05868 -0.149392 5.30516e-23)
(1.05912 -0.136859 -3.20903e-23)
(1.05951 -0.125226 -2.00008e-21)
(1.05987 -0.114497 2.01553e-21)
(1.06019 -0.104637 7.24646e-24)
(1.0605 -0.0956247 8.23733e-24)
(1.06076 -0.0874006 1.03163e-22)
(1.06102 -0.0799363 -9.99514e-23)
(1.06121 -0.0731559 -7.85673e-24)
(1.0614 -0.0670389 1.17937e-24)
(1.06151 -0.0614958 0)
(1.06161 -0.0565251 0)
(1.06163 -0.0520203 0)
(1.06166 -0.0480108 2.21123e-22)
(1.06158 -0.0443648 -2.29291e-22)
(1.06153 -0.0411577 9.56565e-24)
(1.06136 -0.0382163 -8.99249e-24)
(1.06125 -0.0356825 1.02171e-22)
(1.06099 -0.0333166 -1.03298e-22)
(1.06084 -0.0313579 -1.79696e-24)
(1.06051 -0.029461 -7.1409e-23)
(1.06035 -0.0280098 1.00622e-22)
(1.05994 -0.0264947 -3.07526e-23)
(1.05981 -0.0255153 1.97697e-23)
(1.05933 -0.0243099 -2.23716e-23)
(1.05925 -0.023802 3.85765e-24)
(1.05871 -0.0228439 -2.05486e-24)
(0.822334 0.0975006 0)
(0.795664 0.0999407 0)
(0.770629 0.0996995 0)