/*--------------------------------*- C++ -*----------------------------------*\
| =========                 |                                                 |
| \\      /  F ield         | OpenFOAM: The Open Source CFD Toolbox           |
|  \\    /   O peration     | Version:  4.1                                   |
|   \\  /    A nd           | Web:      www.OpenFOAM.org                      |
|    \\/     M anipulation  |                                                 |
\*---------------------------------------------------------------------------*/
FoamFile
{
    version     2.0;
    format      ascii;
    class       volScalarField;
    location    "13";
    object      p;
}
// * * * * * * * * * * * * * * * * * * * * * * * * * * * * * * * * * * * * * //

dimensions      [0 2 -2 0 0 0 0];

internalField   nonuniform List<scalar> 
2000
(
-0.00903426
0.000110912
0.00861233
0.0168063
0.0244565
0.0315692
0.0384386
0.0443015
0.0508809
0.0520034
-0.0258714
-0.0132727
-0.00252259
0.0076064
0.0171879
0.026244
0.0348452
0.0427227
0.0504847
0.0551612
-0.0461919
-0.0295995
-0.0163728
-0.00391063
0.00832807
0.0202014
0.0315416
0.0421321
0.0521393
0.0607354
-0.0699338
-0.0488765
-0.032849
-0.0172415
-0.00117325
0.0146507
0.0296395
0.0434718
0.0563645
0.0672783
-0.0962417
-0.0705128
-0.0510824
-0.0309623
-0.00961468
0.011228
0.0305051
0.0479398
0.063566
0.0770067
-0.123462
-0.0931403
-0.0691346
-0.0427371
-0.0147949
0.0117465
0.0355902
0.0565988
0.0749889
0.0908987
-0.148879
-0.114471
-0.0840898
-0.0497089
-0.0144144
0.0179545
0.046231
0.070622
0.0916318
0.109986
-0.169005
-0.13124
-0.0926029
-0.0491074
-0.00642844
0.0313758
0.0636502
0.0910534
0.114524
0.135182
-0.180159
-0.139545
-0.0914997
-0.038673
0.010779
0.0532671
0.0888856
0.118807
0.144411
0.166932
-0.179035
-0.135726
-0.0780656
-0.0167593
0.0383424
0.0845414
0.122721
0.154558
0.18181
0.205523
0.0555833
0.0523136
0.0509872
0.0501173
0.0493736
0.0487455
0.0482111
0.0477302
0.047218
0.0464862
0.0541625
0.0511225
0.049948
0.0491968
0.0485789
0.0480983
0.0477421
0.0474932
0.0472991
0.0468003
0.0514443
0.0488723
0.0479856
0.0474916
0.0471483
0.0469818
0.0469956
0.0471933
0.0476176
0.0478068
0.0476688
0.0457454
0.0453027
0.045228
0.0453259
0.0456511
0.0462317
0.0470569
0.0483342
0.0504398
0.0430536
0.0419158
0.0420885
0.0426108
0.0433163
0.044285
0.0455978
0.0473075
0.049797
0.0531078
0.0377047
0.0374769
0.0384587
0.0397605
0.0412223
0.042939
0.0450552
0.0476902
0.0514102
0.0573859
0.0315521
0.0323939
0.0344149
0.036684
0.039053
0.0415995
0.0445523
0.048076
0.0524434
0.0623009
0.0243142
0.026538
0.0297642
0.0332429
0.0366972
0.0401831
0.04402
0.0484856
0.0528391
0.0659656
0.0154959
0.0195367
0.0242363
0.0291251
0.033823
0.0383634
0.0431092
0.0483461
0.0530246
0.0663578
0.00458794
0.0108885
0.0173644
0.0238271
0.0299093
0.0356132
0.0413061
0.046707
0.0522066
0.0599853
0.0454067
0.044311
0.0430777
0.0416653
0.0400767
0.0383166
0.0363884
0.0342988
0.0320577
0.0296772
0.0271706
0.0245511
0.0218302
0.0190177
0.0161258
0.0131651
0.0101071
0.0068519
0.00346199
0.000762568
0.0453984
0.044393
0.0432669
0.0419116
0.0403543
0.0386177
0.0367041
0.0346198
0.0323756
0.0299852
0.0274639
0.024827
0.0220878
0.0192573
0.0163468
0.0133674
0.0102967
0.00702755
0.00356705
0.000740941
0.0455717
0.0447984
0.0438784
0.0426332
0.0411029
0.0394119
0.0375245
0.0354455
0.0331885
0.0307702
0.0282093
0.0255246
0.0227332
0.0198483
0.0168811
0.0138422
0.0107171
0.00740158
0.00382931
0.00075627
0.0455159
0.0458756
0.0451652
0.0441716
0.0424149
0.0408737
0.0390413
0.0369764
0.0347033
0.0322432
0.0296186
0.0268518
0.0239639
0.0209717
0.0178874
0.0147201
0.0114652
0.00804197
0.00431274
0.000806044
0.0475348
0.0469697
0.0469013
0.0461144
0.0447802
0.0432223
0.0414243
0.0393747
0.037083
0.0345716
0.0318649
0.0289867
0.02596
0.0228046
0.0195344
0.016156
0.0126679
0.00902243
0.00507643
0.00106273
0.0492598
0.0482387
0.048962
0.0486818
0.047539
0.0460699
0.044374
0.0423999
0.0401366
0.0376093
0.0348458
0.0318689
0.0287002
0.0253593
0.0218614
0.0182111
0.0144042
0.0104095
0.00614495
0.00159622
0.0510743
0.0490863
0.0508709
0.0513076
0.0504144
0.0490838
0.0475608
0.0457339
0.0435562
0.0410613
0.0382836
0.0352426
0.0319557
0.0284391
0.0247072
0.0207592
0.0165914
0.0121572
0.00745878
0.00221994
0.0525276
0.0493604
0.0520754
0.0534836
0.0528577
0.0517636
0.0505356
0.0489358
0.0469044
0.0445009
0.0417649
0.038708
0.0353418
0.0316769
0.0277286
0.0234835
0.0189497
0.0140308
0.00880385
0.00284715
0.0539753
0.0507321
0.0543833
0.0559542
0.055391
0.0545598
0.0536043
0.052135
0.0501611
0.0477744
0.0450221
0.0419109
0.0384474
0.0346295
0.030475
0.0259448
0.0210673
0.0156866
0.00992404
0.00332402
0.0486716
0.0499206
0.0544471
0.0562192
0.0566227
0.0566707
0.0561429
0.0548861
0.0531748
0.0509459
0.0482369
0.0450775
0.0414932
0.0374805
0.0330743
0.0282177
0.0229672
0.0171368
0.0108661
0.00372183
0.0623169
0.0631265
0.0609212
0.0596872
0.0594709
0.0592318
0.0584358
0.0570886
0.0550626
0.0525988
0.0497242
0.0464142
0.042688
0.0385261
0.0339653
0.0289349
0.0235026
0.0174859
0.0110292
0.00378316
0.0605018
0.0623433
0.0620399
0.061437
0.0610454
0.0604701
0.0593784
0.0577259
0.055569
0.0529772
0.0499724
0.0465455
0.0427141
0.0384565
0.0338039
0.0286943
0.0231858
0.0171383
0.0106791
0.00358794
0.0659673
0.0661434
0.0659508
0.06526
0.0642176
0.0628746
0.0611744
0.0590764
0.0565781
0.0536907
0.0504285
0.0467863
0.0427705
0.0383644
0.0335818
0.0283862
0.0228051
0.0167753
0.0103626
0.00351661
0.0734185
0.0711639
0.0701889
0.0691333
0.067539
0.065524
0.0632203
0.0606456
0.0577668
0.0545612
0.05102
0.0471412
0.0429199
0.0383535
0.0334319
0.0281555
0.0225078
0.016513
0.0101431
0.0035112
0.0813605
0.0772611
0.0751104
0.0733506
0.0711534
0.0685036
0.0655891
0.062493
0.0591865
0.0556272
0.0517798
0.0476427
0.0431972
0.0384568
0.0333875
0.0280254
0.0223098
0.016337
0.00999148
0.00351001
0.0897816
0.0842393
0.0807247
0.0779852
0.0750698
0.07178
0.0682536
0.0646077
0.0608336
0.0568865
0.0527086
0.0482944
0.04361
0.0386821
0.0334571
0.027997
0.0222081
0.0162311
0.00989446
0.00350142
0.0985073
0.091619
0.0867337
0.0829141
0.0792014
0.0752539
0.0711214
0.0669204
0.0626598
0.0583035
0.0537787
0.0490743
0.0441419
0.0390156
0.0336283
0.0280566
0.0221872
0.0161804
0.00983955
0.0034857
0.107106
0.0990145
0.0928954
0.0880206
0.0834797
0.0788567
0.0741231
0.0693734
0.0646231
0.0598469
0.0549647
0.049961
0.0447742
0.0394411
0.0338852
0.0281897
0.0222313
0.0161746
0.00981597
0.00346855
0.115323
0.106258
0.0990776
0.0932111
0.0878391
0.0825307
0.0772021
0.0719167
0.0666841
0.0614871
0.0562432
0.0509347
0.0454896
0.0399443
0.0342146
0.028386
0.0223297
0.0162084
0.00981817
0.00345795
0.123094
0.113277
0.105179
0.0983839
0.0921956
0.0862075
0.0802986
0.0744976
0.0687991
0.06319
0.0575873
0.0519746
0.0462709
0.0405117
0.034605
0.0286379
0.0224753
0.0162801
0.00984426
0.00346016
0.130362
0.119987
0.111091
0.103428
0.0964536
0.0898097
0.083348
0.0770605
0.070921
0.064917
0.0589666
0.0530565
0.0470986
0.041128
0.0350441
0.0289365
0.0226616
0.0163863
0.00989271
0.00347696
0.137032
0.126285
0.116705
0.108238
0.100521
0.0932612
0.086286
0.079549
0.0730004
0.0666262
0.0603462
0.0541516
0.0479491
0.0417736
0.0355163
0.0292692
0.0228796
0.0165198
0.00995964
0.00350401
0.143029
0.132068
0.121915
0.11272
0.104322
0.0964961
0.089054
0.0819093
0.0749882
0.0682738
0.0616888
0.0552274
0.0487947
0.0424239
0.0360013
0.0296175
0.0231155
0.0166672
0.0100376
0.00353107
0.148338
0.137254
0.12663
0.116801
0.107795
0.0994637
0.0916042
0.0840952
0.0768411
0.0698194
0.0629573
0.0562497
0.0496056
0.0430513
0.0364759
0.0299594
0.0233524
0.0168116
0.0101161
0.00354471
0.152985
0.141786
0.130783
0.120429
0.110905
0.102129
0.0939005
0.0860704
0.0785263
0.0712308
0.0641202
0.0571891
0.0503551
0.0436315
0.0369189
0.0302757
0.023575
0.0169386
0.0101856
0.00353502
0.156979
0.145625
0.134319
0.123565
0.113623
0.104465
0.0959135
0.0878016
0.0800046
0.0724727
0.0651501
0.0580226
0.0510232
0.0441466
0.0373149
0.0305537
0.0237734
0.0170421
0.0102421
0.00350225
0.160284
0.148731
0.137191
0.126149
0.115894
0.106434
0.0976129
0.0892617
0.0812529
0.0735232
0.0660252
0.0587312
0.0515933
0.0445839
0.0376529
0.030787
0.0239416
0.0171219
0.0102852
0.00345582
0.162844
0.151078
0.139361
0.128127
0.117656
0.107974
0.0989459
0.0904066
0.0822336
0.0743499
0.066716
0.0592906
0.0520447
0.0449288
0.0379205
0.030969
0.0240736
0.0171796
0.0103155
0.00340844
0.16468
0.152719
0.140854
0.129483
0.118869
0.109036
0.099866
0.0911966
0.0829107
0.074921
0.0671942
0.0596779
0.0523577
0.0451672
0.0381058
0.0310937
0.0241642
0.0172172
0.0103344
0.00337078
0.165806
0.153706
0.141709
0.130231
0.119525
0.109605
0.100356
0.0916151
0.083268
0.075222
0.0674461
0.059882
0.0525223
0.0452929
0.0382029
0.0311599
0.0242115
0.0172383
0.0103437
0.00335275
0.224356
0.185831
0.153392
0.126874
0.1061
0.0903136
0.0788336
0.0701106
0.0647263
0.0536097
0.239932
0.202495
0.170604
0.143798
0.122136
0.104346
0.0909984
0.0781741
0.0710433
0.0568699
0.254244
0.218161
0.187189
0.160366
0.138207
0.118459
0.103461
0.0874921
0.0795229
0.0658219
0.267243
0.232385
0.202218
0.175308
0.152851
0.131825
0.116138
0.0993214
0.0908134
0.0770476
0.278947
0.245106
0.215597
0.188661
0.166156
0.14468
0.128808
0.111824
0.101822
0.0872479
0.289469
0.256517
0.227623
0.20085
0.17848
0.156944
0.140666
0.123229
0.111676
0.0967331
0.298916
0.26679
0.238501
0.212033
0.189804
0.168247
0.151408
0.133629
0.121286
0.106379
0.307366
0.276014
0.248296
0.222182
0.200051
0.178523
0.161339
0.143588
0.130901
0.116008
0.314863
0.284226
0.257028
0.231291
0.209275
0.187915
0.17063
0.153056
0.140026
0.125145
0.321453
0.291468
0.264741
0.239404
0.217554
0.196459
0.179143
0.161728
0.148329
0.133598
0.327225
0.297842
0.271525
0.246592
0.224925
0.204116
0.186752
0.169497
0.155804
0.141316
0.332191
0.303427
0.277466
0.252922
0.231429
0.210896
0.193491
0.176413
0.162526
0.148226
0.336432
0.308201
0.282602
0.258447
0.237135
0.216863
0.199461
0.182538
0.168532
0.154296
0.339981
0.312244
0.287018
0.263243
0.24213
0.222092
0.204741
0.187925
0.173856
0.159604
0.34296
0.315684
0.290816
0.267392
0.246481
0.226654
0.209374
0.192646
0.17854
0.164291
0.345444
0.318592
0.294043
0.27094
0.250214
0.230593
0.21337
0.196765
0.182595
0.168441
0.347451
0.320982
0.2967
0.2739
0.253321
0.233925
0.21672
0.200291
0.186002
0.17201
0.348947
0.322829
0.298768
0.276257
0.25579
0.236632
0.219412
0.203184
0.188733
0.174889
0.349838
0.324037
0.300172
0.277935
0.257573
0.238647
0.221419
0.205378
0.190783
0.177023
0.350073
0.324481
0.300757
0.278728
0.258468
0.239727
0.222533
0.206636
0.191985
0.178285
0.802207
0.80345
0.797272
0.785183
0.768364
0.7464
0.716916
0.676776
0.627751
0.601047
0.752304
0.749623
0.735653
0.717154
0.695176
0.667652
0.631355
0.582984
0.524398
0.490685
0.696313
0.6883
0.668387
0.644941
0.61823
0.585173
0.542185
0.48599
0.418428
0.37818
0.631439
0.619351
0.596019
0.569239
0.53857
0.500523
0.451514
0.388488
0.313
0.267364
0.562612
0.547222
0.521522
0.492172
0.458139
0.415789
0.361718
0.293388
0.211489
0.162368
0.493779
0.475291
0.447706
0.416274
0.379442
0.333543
0.275339
0.203345
0.117474
0.0676905
0.426978
0.405696
0.376778
0.343848
0.3049
0.256424
0.195162
0.120006
0.0368969
-0.0140141
0.363563
0.340106
0.310566
0.276892
0.236644
0.186845
0.124211
0.0489951
-0.0300518
-0.0805813
0.3048
0.280074
0.250735
0.217132
0.176595
0.12652
0.0646923
-0.00807565
-0.0817751
-0.130435
0.251348
0.227039
0.198609
0.165526
0.12567
0.0768824
0.0176012
-0.0504951
-0.116978
-0.163034
1.07181
1.08039
1.09025
1.10143
1.11393
1.12761
1.14201
1.15586
1.16837
1.18569
1.06904
1.07703
1.08645
1.09713
1.109
1.1219
1.13536
1.14806
1.15925
1.17584
1.06321
1.07
1.07854
1.08825
1.09887
1.11022
1.12178
1.13218
1.14088
1.15582
1.05374
1.05873
1.06599
1.07426
1.08305
1.09213
1.10089
1.10788
1.11288
1.1253
1.03989
1.04248
1.04807
1.05449
1.06091
1.06703
1.07213
1.07468
1.07479
1.0838
1.0208
1.02037
1.02393
1.02815
1.03171
1.03426
1.03494
1.03208
1.02617
1.0309
0.995637
0.991621
0.992941
0.994697
0.994962
0.99333
0.988878
0.979731
0.966732
0.966324
0.962916
0.954904
0.954148
0.953419
0.950085
0.943829
0.933667
0.917493
0.89646
0.890161
0.922102
0.910435
0.908203
0.904687
0.897174
0.885801
0.869444
0.845638
0.815772
0.802979
0.868015
0.857451
0.855268
0.848586
0.836484
0.81974
0.796859
0.764969
0.725658
0.705983
1.00055
1.00196
1.00393
1.00606
1.00818
1.01033
1.01255
1.0149
1.0174
1.02008
1.02294
1.02602
1.02937
1.03302
1.03702
1.04144
1.04631
1.05172
1.05772
1.0644
1.00055
1.00197
1.00391
1.006
1.00809
1.01019
1.01238
1.01469
1.01714
1.01975
1.02254
1.02555
1.0288
1.03235
1.03623
1.04048
1.04517
1.05035
1.05605
1.06238
1.00057
1.00198
1.00384
1.00586
1.00786
1.00989
1.012
1.01421
1.01656
1.01905
1.0217
1.02454
1.0276
1.03092
1.03452
1.03845
1.04273
1.04741
1.05249
1.05807
1.0006
1.00196
1.00371
1.0056
1.00749
1.00939
1.01136
1.01343
1.0156
1.01788
1.02029
1.02286
1.0256
1.02854
1.03169
1.03507
1.03868
1.04255
1.0466
1.05093
1.00061
1.00191
1.00349
1.00519
1.0069
1.00862
1.01039
1.01222
1.01415
1.01612
1.01818
1.02034
1.02261
1.02498
1.02745
1.03001
1.03263
1.03528
1.03779
1.04025
1.00059
1.0018
1.00316
1.0046
1.00607
1.00754
1.00904
1.01058
1.01209
1.01363
1.01521
1.01681
1.01841
1.01999
1.0215
1.02291
1.02411
1.02505
1.0254
1.02521
1.00053
1.00159
1.00267
1.00379
1.00492
1.00606
1.00721
1.00828
1.00931
1.0103
1.01125
1.01209
1.0128
1.0133
1.01352
1.01335
1.01265
1.01125
1.00874
1.00508
1.00041
1.00123
1.00199
1.00273
1.00348
1.00418
1.00479
1.00531
1.00575
1.00605
1.00618
1.00606
1.00563
1.00475
1.00333
1.00115
0.998027
0.993563
0.987333
0.97865
1.0002
1.00066
1.00104
1.00134
1.00158
1.00174
1.00177
1.00165
1.00134
1.00078
0.999899
0.998575
0.996729
0.994134
0.990715
0.986003
0.980007
0.97167
0.9611
0.945692
1
0.99994
0.999878
0.999724
0.999405
0.99891
0.998244
0.997355
0.996174
0.994577
0.992483
0.989683
0.986091
0.981272
0.975207
0.966875
0.956702
0.942109
0.925362
0.899898
0.999714
0.999204
0.998787
0.998155
0.997188
0.995938
0.994471
0.992713
0.990551
0.987793
0.984341
0.979908
0.974407
0.967223
0.95839
0.946477
0.932048
0.911081
0.885604
0.842278
0.999411
0.998522
0.997745
0.996562
0.994852
0.992804
0.990556
0.987981
0.984906
0.981085
0.976445
0.970634
0.963625
0.954652
0.943904
0.929677
0.912898
0.88961
0.863255
0.826142
0.999803
0.998562
0.9972
0.995108
0.992359
0.989418
0.986425
0.983075
0.979112
0.974258
0.968499
0.961435
0.953107
0.942642
0.930398
0.914582
0.896531
0.872558
0.846764
0.811727
0.999288
0.999279
0.997915
0.994185
0.989769
0.985778
0.9821
0.978021
0.973163
0.967267
0.960415
0.952166
0.942628
0.930846
0.917355
0.900312
0.881405
0.856921
0.831369
0.797094
0.999198
1.00087
0.999073
0.992939
0.986569
0.981655
0.977477
0.972744
0.967007
0.960096
0.952213
0.942874
0.932251
0.919326
0.904804
0.886801
0.867252
0.842409
0.817044
0.783704
0.999299
1.00222
0.999179
0.990473
0.982633
0.97731
0.972779
0.967335
0.960683
0.952802
0.943974
0.933652
0.922057
0.908151
0.892765
0.874028
0.853999
0.829044
0.803919
0.771685
0.994739
0.992986
0.989577
0.9826
0.977015
0.972891
0.968171
0.961815
0.954185
0.94543
0.935782
0.924596
0.912129
0.897383
0.881263
0.861994
0.841607
0.816763
0.791869
0.760787
0.999004
0.981796
0.966655
0.965167
0.968189
0.968085
0.963532
0.956094
0.947489
0.938018
0.927706
0.915794
0.902554
0.887107
0.870363
0.850741
0.830082
0.805508
0.780795
0.750861
0.994026
0.965018
0.947654
0.952647
0.962357
0.964913
0.959942
0.951191
0.941512
0.931278
0.920268
0.90764
0.893653
0.877592
0.860293
0.840436
0.819551
0.795325
0.770735
0.74189
0.99354
0.961091
0.942532
0.949408
0.960679
0.963083
0.956958
0.947024
0.936412
0.925402
0.913622
0.900265
0.885569
0.868986
0.851208
0.8312
0.810128
0.786265
0.76177
0.733883
0.997463
0.974863
0.960805
0.963075
0.966696
0.963627
0.95493
0.943949
0.932585
0.92073
0.908035
0.89388
0.878502
0.861458
0.843282
0.823155
0.801941
0.778378
0.75399
0.726852
0.991478
0.994739
1.00058
0.99461
0.981814
0.967869
0.954891
0.942657
0.930501
0.917619
0.90382
0.888754
0.872691
0.855198
0.836681
0.816407
0.795095
0.771698
0.747455
0.72079
1.00166
1.02156
1.03142
1.0168
0.99235
0.970678
0.954547
0.94145
0.92876
0.915051
0.900317
0.884459
0.867845
0.849979
0.831227
0.810794
0.78946
0.766093
0.74207
0.715593
1.00762
1.03579
1.0466
1.02753
0.997224
0.971432
0.953675
0.940198
0.927183
0.912844
0.897378
0.880876
0.863836
0.845653
0.826738
0.806136
0.784826
0.761409
0.737652
0.711202
1.00973
1.0434
1.05554
1.03249
0.997667
0.969535
0.951434
0.93827
0.925252
0.910547
0.89459
0.877636
0.860289
0.841857
0.82281
0.802082
0.780804
0.757389
0.733872
0.707563
1.00613
1.04634
1.06639
1.03992
0.998199
0.96643
0.947545
0.934697
0.922142
0.907493
0.891425
0.874345
0.856844
0.83827
0.819099
0.798349
0.77708
0.753834
0.730468
0.704581
0.976846
0.986995
1.01501
1.01357
0.992958
0.969136
0.949437
0.933572
0.919166
0.904176
0.888346
0.871457
0.853887
0.835201
0.815857
0.795142
0.773835
0.750872
0.727552
0.702217
1.00177
0.944359
0.897566
0.91161
0.942263
0.954977
0.947315
0.930715
0.913991
0.899015
0.884346
0.868424
0.851165
0.83255
0.813107
0.792497
0.771181
0.748532
0.725248
0.700381
1.00667
0.946072
0.88715
0.894926
0.928617
0.946105
0.942116
0.927904
0.912171
0.8972
0.882329
0.866424
0.849233
0.830734
0.811268
0.790744
0.769408
0.746979
0.723731
0.699198
0.972728
0.988072
1.02232
1.01061
0.976807
0.950969
0.936704
0.925797
0.913183
0.8984
0.882428
0.865742
0.848315
0.829875
0.810424
0.78994
0.768554
0.746225
0.722993
0.698693
0.79636
0.742853
0.687932
0.627534
0.562905
0.498237
0.435679
0.375985
0.320132
0.269098
0.790342
0.734751
0.676948
0.619295
0.558587
0.497276
0.438275
0.382267
0.330064
0.282529
0.77889
0.725422
0.666744
0.611339
0.555075
0.497493
0.441695
0.388946
0.339946
0.294907
0.766759
0.716913
0.658774
0.604426
0.551699
0.497818
0.445018
0.395058
0.34878
0.306018
0.75505
0.708504
0.65188
0.598348
0.548373
0.498092
0.448295
0.400793
0.356836
0.316051
0.743987
0.700262
0.645822
0.593349
0.545478
0.498389
0.451513
0.406253
0.364256
0.325139
0.733577
0.692246
0.640354
0.589312
0.543142
0.498729
0.454576
0.411407
0.371085
0.333362
0.72382
0.684539
0.635398
0.586153
0.541479
0.499212
0.457449
0.416204
0.377338
0.340784
0.714786
0.677258
0.630936
0.583768
0.540486
0.499878
0.460084
0.42056
0.382982
0.347425
0.706599
0.670563
0.626979
0.582018
0.540058
0.500696
0.462429
0.424387
0.387975
0.353309
0.699444
0.664678
0.62356
0.580735
0.540003
0.501571
0.464428
0.427613
0.392233
0.358469
0.693478
0.659806
0.620702
0.579718
0.540075
0.50236
0.466047
0.430233
0.395686
0.362531
0.688666
0.655955
0.618337
0.57876
0.540029
0.502919
0.467265
0.432297
0.398592
0.366257
0.684839
0.652931
0.616316
0.577717
0.539722
0.503168
0.468103
0.433882
0.400957
0.369323
0.681671
0.650329
0.614403
0.576517
0.539143
0.503131
0.46862
0.435069
0.402829
0.371831
0.678811
0.647772
0.612437
0.57522
0.538434
0.50294
0.46893
0.435958
0.404304
0.373877
0.676191
0.645239
0.610489
0.57398
0.537767
0.502723
0.469115
0.436613
0.405439
0.375504
0.673965
0.642966
0.608706
0.572836
0.537113
0.502418
0.469106
0.436974
0.40619
0.37668
0.672502
0.641382
0.607376
0.571877
0.536423
0.501909
0.468768
0.436906
0.406435
0.377294
0.671911
0.640743
0.606814
0.571392
0.535939
0.501399
0.468261
0.436505
0.406193
0.377289
)
;

boundaryField
{
    bottom
    {
        type            symmetryPlane;
    }
    right
    {
        type            fixedValue;
        value           uniform 0;
    }
    top
    {
        type            symmetryPlane;
    }
    left
    {
        type            fixedValue;
        value           uniform 1;
    }
    cylinder
    {
        type            zeroGradient;
    }
    defaultFaces
    {
        type            empty;
    }
}


// ************************************************************************* //
