/*--------------------------------*- C++ -*----------------------------------*\
| =========                 |                                                 |
| \\      /  F ield         | OpenFOAM: The Open Source CFD Toolbox           |
|  \\    /   O peration     | Version:  4.1                                   |
|   \\  /    A nd           | Web:      www.OpenFOAM.org                      |
|    \\/     M anipulation  |                                                 |
\*---------------------------------------------------------------------------*/
FoamFile
{
    version     2.0;
    format      ascii;
    class       surfaceScalarField;
    location    "13";
    object      phi;
}
// * * * * * * * * * * * * * * * * * * * * * * * * * * * * * * * * * * * * * //

dimensions      [0 3 -1 0 0 0 0];

internalField   nonuniform List<scalar> 
3890
(
0.000352454
0.00139293
-0.00174539
0.00223557
-0.00075091
-0.00113221
0.00618422
-0.00601439
0.00206573
0.0124123
-0.0132856
0.00705756
0.0207169
-0.0214959
0.0131914
0.0305582
-0.0296742
0.0198329
0.0412532
-0.037127
0.0264321
0.0522521
-0.0434966
0.0324977
0.0630219
-0.048928
0.0381582
-0.0525163
0.0424793
0.0730589
0.000628079
0.000764853
0.003395
-0.00351783
0.00878713
-0.0114065
0.0166833
-0.0211819
0.0263739
-0.0311865
0.0369052
-0.0402056
0.0474335
-0.0476553
0.0574132
-0.0534762
0.0663966
-0.0579113
-0.0609858
0.0748661
0.000994466
-0.000229613
0.00480397
-0.00732733
0.0116427
-0.0182453
0.0207717
-0.0303109
0.0309241
-0.0413388
0.0409514
-0.0502329
0.0501516
-0.0568556
0.058269
-0.0615936
0.0653844
-0.0650268
-0.0675327
0.0719313
0.00144595
-0.00167556
0.00636227
-0.0122437
0.0143572
-0.0262402
0.0239234
-0.039877
0.0334827
-0.0508982
0.0420762
-0.0588264
0.0494185
-0.0641979
0.0556817
-0.0678568
0.0612091
-0.0705542
-0.0727362
0.0664127
0.00196406
-0.00363962
0.00788611
-0.0181657
0.016452
-0.0348061
0.0255528
-0.0489777
0.0337407
-0.0590861
0.0405361
-0.0656218
0.0461091
-0.069771
0.0508835
-0.0726312
0.0552715
-0.0749421
-0.0771147
0.0596499
0.00250511
-0.00614473
0.00913271
-0.0247933
0.0175448
-0.0432182
0.0254836
-0.0569165
0.0319788
-0.0655812
0.0370571
-0.0707001
0.0411704
-0.0738843
0.0448
-0.0762608
0.0482981
-0.0784403
-0.0806613
0.0518447
0.00300169
-0.00914642
0.0098767
-0.0316683
0.0174964
-0.050838
0.0239183
-0.0633383
0.0287376
-0.0704005
0.0323354
-0.0742979
0.03526
-0.0768089
0.0379362
-0.0789369
0.0405996
-0.0811037
-0.083416
0.0433543
0.00337247
-0.0125189
0.00998859
-0.0382844
0.0164016
-0.057251
0.021228
-0.0681648
0.0245327
-0.0737052
0.0268771
-0.0766424
0.0287877
-0.0787195
0.0305873
-0.0807365
0.0324191
-0.0829354
-0.085318
0.0343211
0.00354606
-0.016065
0.00946094
-0.0441993
0.0144813
-0.0622714
0.0177885
-0.071472
0.0197665
-0.0756832
0.0210279
-0.0779037
0.0220184
-0.0797101
0.0229619
-0.08168
0.0239299
-0.0839034
-0.0863251
0.0249371
0.00348574
-0.0195507
0.00840363
-0.0491172
0.0119926
-0.0658603
0.0139165
-0.0733959
0.0147343
-0.076501
0.015027
-0.0781964
0.0151424
-0.0798255
0.0152245
-0.0817621
0.0153055
-0.0839844
0.0153894
-0.086409
-0.000444543
0.000444543
-0.00133725
0.000892704
-0.00244918
0.00111193
-0.00365106
0.00120189
-0.00486894
0.00121788
-0.00606436
0.00119542
-0.0072237
0.00115934
-0.0083517
0.001128
-0.00946952
0.00111782
0.00114984
-0.0106194
-0.000409367
0.00085391
-0.00122811
0.00171145
-0.0022386
0.00212241
-0.00331024
0.00227353
-0.00436489
0.00227253
-0.00535751
0.00218804
-0.00626644
0.00206827
-0.00708929
0.00195086
-0.0078404
0.00186893
0.00187369
-0.00856424
-0.000346914
0.00120082
-0.00103511
0.00239965
-0.00185938
0.00294668
-0.00269076
0.00310491
-0.00344566
0.00302743
-0.00406795
0.00281033
-0.00452067
0.00252099
-0.00478715
0.00221733
-0.00487255
0.00195433
0.00178353
-0.0047824
-0.000272978
0.0014738
-0.000794516
0.00292118
-0.00137319
0.00352535
-0.00188228
0.003614
-0.0022335
0.00337865
-0.00235967
0.0029365
-0.00220464
0.00236595
-0.0017213
0.00173399
-0.00088884
0.00112188
0.000703513
0.000191178
-0.000201702
0.0016755
-0.00054044
0.00325992
-0.000831626
0.00381654
-0.000948217
0.00373059
-0.000796219
0.00322666
-0.00029804
0.00243832
0.000617549
0.00145036
0.00201781
0.000333731
0.00396612
-0.00082643
-0.00184738
0.00651701
-0.000141222
0.00181673
-0.000288309
0.00340701
-0.000246756
0.00377499
0.000121361
0.00336247
0.000926039
0.00242198
0.00225921
0.00110515
0.00420333
-0.000493757
0.00683215
-0.00229509
0.0102163
-0.00421062
-0.00621697
0.0145859
-9.05333e-05
0.00190726
-2.24311e-05
0.00333891
0.000423485
0.00332907
0.00142617
0.00235978
0.0031269
0.000721245
0.00563993
-0.00140788
0.0090477
-0.00390152
0.0133965
-0.00664389
0.0186739
-0.00948801
-0.0128401
0.025297
-3.9213e-05
0.00194647
0.000289621
0.00301007
0.00127314
0.00234555
0.00313955
0.000493372
0.00607426
-0.00221346
0.0101998
-0.00553342
0.0155586
-0.00926028
0.0220986
-0.013184
0.0296963
-0.0170857
-0.0217925
0.0386487
3.98934e-05
0.00190658
0.000725219
0.00232475
0.00243841
0.000632359
0.00547048
-0.0025387
0.0100146
-0.00675754
0.016126
-0.0116449
0.0237132
-0.0168475
0.0325182
-0.0219889
0.0423675
-0.0269351
-0.0321389
0.0527139
0.000161193
0.00135373
0.00405182
0.00857069
0.0150045
0.0231925
0.0327771
0.0432859
0.054509
0.0648494
-0.0112831
0.000663722
-0.0119366
0.000653559
-0.0125627
0.000626086
-0.0131586
0.000595901
-0.0137231
0.00056448
-0.0142546
0.000531475
-0.0147513
0.000496742
-0.0152115
0.000460208
-0.0156335
0.000421993
-0.016016
0.000382488
-0.0163584
0.000342396
-0.0166612
0.000302742
-0.016926
0.000264883
-0.0171565
0.000230474
-0.0173578
0.000201324
-0.0175369
0.000179029
-0.0177015
0.000164677
-0.0178608
0.000159309
-0.0180244
0.000163563
0.000170832
-0.00910487
0.00120435
-0.00964751
0.00119619
-0.0101768
0.00115541
-0.0106929
0.00111194
-0.0111945
0.00106607
-0.0116794
0.00101641
-0.0121455
0.000962796
-0.0125902
0.000904977
-0.0130112
0.000842981
-0.013406
0.000777291
-0.0137726
0.000708947
-0.0141095
0.000639626
-0.0144163
0.000571674
-0.0146939
0.000508099
-0.014945
0.000452428
-0.0151741
0.000408155
-0.0153874
0.000377979
-0.0155923
0.000364165
-0.0157976
0.000368902
0.000382516
-0.00510877
0.00153072
-0.00542831
0.00151574
-0.00576484
0.00149194
-0.00611174
0.00145884
-0.00647189
0.00142622
-0.00684099
0.00138551
-0.00721747
0.00133928
-0.00759883
0.00128633
-0.00798216
0.00122631
-0.00836424
0.00115936
-0.00874156
0.00108627
-0.00911058
0.00100864
-0.00946796
0.000929062
-0.00981096
0.000851095
-0.0101379
0.000779333
-0.0104486
0.000718927
-0.010745
0.000674365
-0.0110302
0.000649347
-0.011311
0.00064969
0.000672277
0.000263285
0.00145862
0.000194963
0.00158406
0.000110189
0.00157671
3.37577e-06
0.00156565
-0.000128997
0.00155859
-0.000297827
0.00155434
-0.000500853
0.00154231
-0.000736036
0.00152152
-0.00100154
0.00149182
-0.00129505
0.00145288
-0.00161353
0.00140475
-0.00195324
0.00134835
-0.00230983
0.00128565
-0.00267844
0.0012197
-0.00305393
0.00115483
-0.00343159
0.00109659
-0.00380789
0.00105066
-0.00417997
0.00102143
-0.00454566
0.00101538
0.00104155
0.00681475
0.00116088
0.00703233
0.00136648
0.00720081
0.00140823
0.00734556
0.0014209
0.00744737
0.00145678
0.00750383
0.00149788
0.00751527
0.00153087
0.00748208
0.00155471
0.00740348
0.00157042
0.00727879
0.00157756
0.00710817
0.00157537
0.00689261
0.00156392
0.00663402
0.00154424
0.00633542
0.0015183
0.00600113
0.00148911
0.00563659
0.00146114
0.00524761
0.00143963
0.00483978
0.00142926
0.00442248
0.00143267
0.00146193
0.0150328
0.000714044
0.0153791
0.0010201
0.0156856
0.00110175
0.0159858
0.0011207
0.0162555
0.00118709
0.0164865
0.00126691
0.0166805
0.00133685
0.016837
0.00139816
0.0169525
0.00145493
0.0170231
0.00150701
0.0170454
0.00155301
0.0170169
0.00159244
0.0169355
0.00162563
0.0168002
0.00165364
0.0166112
0.00167806
0.0163704
0.00170196
0.0160814
0.00172869
0.0157466
0.00176401
0.0153738
0.00180552
0.0018788
0.0256379
0.00037318
0.0259265
0.000731504
0.0262278
0.000800403
0.0265324
0.000816133
0.0268355
0.000884023
0.0271232
0.00097913
0.0273994
0.0010607
0.0276606
0.00113696
0.0279002
0.00121534
0.0281119
0.00129525
0.0282903
0.00137466
0.0284299
0.00145286
0.0285258
0.00152967
0.0285738
0.00160564
0.028571
0.00168094
0.0285147
0.00175823
0.0284057
0.00183768
0.0282413
0.00192845
0.0280262
0.0020206
0.00216149
0.0386873
0.000334652
0.0388176
0.000601158
0.0390215
0.000596461
0.039271
0.000566668
0.0395265
0.000628538
0.0398017
0.000703955
0.0400932
0.000769133
0.04039
0.00084023
0.0406836
0.000921734
0.0409673
0.00101152
0.041235
0.00110697
0.0414806
0.00120721
0.0416992
0.00131113
0.0418856
0.0014192
0.0420369
0.00152965
0.0421488
0.00164635
0.0422224
0.00176411
0.0422514
0.00189945
0.0422485
0.00202346
0.00223034
0.052609
0.000439516
0.0527653
0.000444907
0.0531036
0.000258104
0.0534109
0.000259402
0.0537216
0.000317822
0.0540624
0.00036316
0.0544216
0.000409914
0.0547809
0.000480958
0.0551369
0.000565712
0.0554856
0.000662835
0.0558239
0.000768672
0.0561488
0.000882295
0.0564584
0.00100151
0.05675
0.00112764
0.0570234
0.00125619
0.0572752
0.00139457
0.0575106
0.00152873
0.0577212
0.00168887
0.057929
0.00181563
0.00205548
0.0652306
5.84032e-05
0.0659211
-0.000245656
0.0665312
-0.000351977
0.067103
-0.000312396
0.0676711
-0.000250233
0.06822
-0.00018583
0.0687401
-0.000110173
0.069236
-1.48852e-05
0.0697257
7.59413e-05
0.0702053
0.000183291
0.0706763
0.000297662
0.0711397
0.000418858
0.0715977
0.000543555
0.0720501
0.000675194
0.0725006
0.000805728
0.0729467
0.000948444
0.0733975
0.00107795
0.0738457
0.00124073
0.074313
0.00134825
0.0015682
0.0904527
0.000838
-0.0912323
0.0895298
0.000677268
0.0886444
0.000533426
0.0878831
0.00044887
0.0872218
0.000411017
0.0866318
0.000404198
0.0860991
0.000422556
0.0856203
0.000463918
0.0851762
0.000520003
0.0847675
0.000592048
0.0843895
0.000675618
0.0840384
0.000769935
0.0837121
0.00086993
0.0834077
0.000979557
0.0831257
0.00108777
0.0828636
0.00121046
0.082625
0.00131658
0.0824088
0.00145696
0.0822189
0.00153813
0.00170915
0.0993657
0.00110979
-0.0996375
0.0989904
0.00105254
0.09855
0.000973777
0.0981134
0.000885537
0.0977009
0.000823499
0.0973096
0.000795521
0.0969372
0.000794928
0.0965855
0.000815651
0.0962525
0.000852942
0.0959389
0.000905671
0.0956439
0.000970663
0.0953663
0.00104748
0.0951056
0.00113063
0.0948609
0.00122431
0.0946321
0.0013165
0.0944193
0.00142327
0.0942228
0.00151311
0.0940463
0.0016335
0.0938849
0.00169954
0.00184105
0.105967
0.001394
-0.106251
0.105745
0.00127413
0.105536
0.00118318
0.105329
0.00109179
0.105132
0.00102037
0.104947
0.000980694
0.104773
0.00096962
0.104608
0.000980571
0.104452
0.00100865
0.104306
0.00105198
0.104169
0.00110733
0.104042
0.00117475
0.103924
0.00124834
0.103815
0.00133289
0.103717
0.00141533
0.103627
0.00151252
0.103548
0.00159214
0.103481
0.00170104
0.103422
0.0017587
0.0018865
0.111449
0.00159603
-0.111651
0.111319
0.00140362
0.111226
0.00127683
0.11114
0.00117716
0.111062
0.00109881
0.110995
0.00104761
0.11094
0.00102394
0.110897
0.00102358
0.110865
0.00104143
0.110841
0.00107528
0.110828
0.00112102
0.110823
0.00117966
0.110827
0.00124402
0.110839
0.00132066
0.110861
0.00139398
0.110889
0.00148397
0.110927
0.00155447
0.110971
0.00165688
0.111023
0.00170718
0.00182858
0.116471
0.00167538
-0.116551
0.116419
0.00145612
0.116391
0.00130464
0.116374
0.00119408
0.116363
0.00110928
0.116362
0.00104889
0.116373
0.00101346
0.116395
0.00100135
0.116429
0.0010078
0.116473
0.00103109
0.116528
0.00106588
0.116593
0.00111458
0.116669
0.0011681
0.116754
0.00123568
0.116849
0.00129839
0.116953
0.00138044
0.117067
0.00144091
0.117187
0.00153669
0.117315
0.00157923
0.00169469
0.121501
0.00168127
-0.121507
0.121495
0.00146272
0.121501
0.00129879
0.121517
0.00117755
0.121541
0.00108571
0.121572
0.00101807
0.121612
0.000973088
0.121663
0.000950413
0.121725
0.000945683
0.121798
0.000958336
0.121882
0.000981816
0.121976
0.00101997
0.122083
0.00106194
0.122199
0.00111935
0.122327
0.00117065
0.122464
0.00124324
0.122612
0.00129326
0.122768
0.00138027
0.122932
0.00141523
0.0015217
0.126714
0.00165904
-0.126692
0.12673
0.00144716
0.12675
0.00127819
0.126779
0.00114912
0.126814
0.00105072
0.126855
0.000976991
0.126904
0.000924278
0.126962
0.000892504
0.12703
0.000877474
0.127108
0.000879828
0.127198
0.000892328
0.127298
0.000919845
0.12741
0.000950423
0.127532
0.000997034
0.127665
0.00103711
0.12781
0.00109898
0.127964
0.00113898
0.128129
0.00121516
0.128301
0.00124322
0.0013376
0.132041
0.0016219
-0.132003
0.13207
0.00141816
0.132098
0.00124926
0.132131
0.00111615
0.132169
0.00101284
0.132212
0.000934094
0.132261
0.000875109
0.132318
0.000835624
0.132384
0.000811486
0.13246
0.000804189
0.132546
0.000806449
0.132642
0.000823552
0.132749
0.000843435
0.132867
0.000879071
0.132995
0.000908647
0.133135
0.000959127
0.133284
0.000989935
0.133445
0.00105405
0.133613
0.00107602
0.00115649
0.137284
0.001566
-0.137229
0.13733
0.00137262
0.137372
0.00120742
0.137414
0.00107362
0.13746
0.00096766
0.137508
0.000885351
0.137562
0.00082157
0.137622
0.000775823
0.137689
0.000744041
0.137765
0.000728131
0.13785
0.000721264
0.137945
0.000728601
0.13805
0.000738815
0.138165
0.000763843
0.13829
0.000783931
0.138426
0.00082307
0.13857
0.000845677
0.138727
0.000897467
0.138889
0.000914136
0.000980299
0.142244
0.0014795
-0.142158
0.142319
0.00129788
0.142387
0.00113879
0.142454
0.00100732
0.14252
0.000901362
0.142588
0.000817539
0.142659
0.000750807
0.142734
0.00070058
0.142815
0.000662985
0.142903
0.000640043
0.142999
0.000625612
0.143103
0.000624442
0.143215
0.000626385
0.143337
0.000641871
0.143467
0.00065376
0.143608
0.000682461
0.143756
0.000697981
0.143915
0.000738254
0.144079
0.000750381
0.000803189
0.146833
0.00134393
-0.146698
0.146956
0.00117518
0.14707
0.00102473
0.147179
0.000898834
0.147284
0.000796011
0.147388
0.0007134
0.147493
0.00064617
0.147599
0.000593873
0.14771
0.000552836
0.147824
0.000525169
0.147945
0.00050531
0.148072
0.000497691
0.148205
0.000493247
0.148345
0.000501115
0.148493
0.000506459
0.148649
0.000526582
0.14881
0.000536339
0.148981
0.000566999
0.149156
0.000575395
0.000617025
0.151192
0.001142
-0.15099
0.151379
0.000988832
0.151553
0.000850637
0.151717
0.000734147
0.151875
0.000638023
0.152029
0.000559959
0.15218
0.000495317
0.152329
0.000444068
0.15248
0.000402563
0.152632
0.000373217
0.152786
0.000350648
0.152945
0.000339421
0.153107
0.00033098
0.153274
0.000333961
0.153446
0.000334796
0.153623
0.000349057
0.153805
0.000354611
0.153993
0.000378487
0.154185
0.00038404
0.000417621
0.155725
0.000873507
-0.155456
0.155973
0.000740147
0.156205
0.000618637
0.156424
0.000515546
0.156632
0.000429681
0.156833
0.000359616
0.157027
0.00030086
0.157217
0.000254063
0.157404
0.000215292
0.15759
0.000187639
0.157775
0.000165279
0.157961
0.000153595
0.158148
0.000143749
0.158337
0.000144896
0.158529
0.000143401
0.158723
0.000154821
0.15892
0.000157807
0.15912
0.000178031
0.159323
0.000181644
0.000210556
0.160968
0.000568529
-0.160663
0.16125
0.000458659
0.161511
0.000357339
0.161756
0.000270684
0.161988
0.000197755
0.162209
0.000138197
0.162422
8.79057e-05
0.162628
4.82578e-05
0.162829
1.47351e-05
0.163025
-8.4262e-06
0.163218
-2.8264e-05
0.16341
-3.7864e-05
0.1636
-4.69723e-05
0.163791
-4.52277e-05
0.163981
-4.72456e-05
0.164172
-3.62898e-05
0.164365
-3.45012e-05
0.164558
-1.55092e-05
0.164753
-1.30679e-05
1.37054e-05
0.167267
0.000283267
-0.166981
0.167528
0.000197485
0.167768
0.000117181
0.167991
4.76338e-05
0.1682
-1.13183e-05
0.168398
-5.97868e-05
0.168587
-0.000100631
0.168767
-0.000132087
0.168941
-0.000159204
0.16911
-0.00017715
0.169274
-0.000193154
0.169436
-0.000199538
0.169596
-0.00020691
0.169754
-0.000203554
0.169912
-0.000205199
0.17007
-0.000193775
0.170228
-0.00019244
0.170386
-0.000173862
0.170545
-0.000172091
-0.000146632
0.174422
7.17265e-05
-0.17421
0.174612
7.25099e-06
0.174783
-5.37698e-05
0.174938
-0.00010738
0.175081
-0.000154019
0.175212
-0.000191559
0.175335
-0.000223627
0.175451
-0.000247539
0.17556
-0.00026862
0.175665
-0.000281694
0.175766
-0.000294062
0.175864
-0.00029768
0.17596
-0.000303294
0.176056
-0.000298846
0.17615
-0.000300007
0.176245
-0.000288752
0.176341
-0.000287683
0.176437
-0.000270324
0.176534
-0.000269025
-0.000245807
0.181661
-4.48802e-05
-0.181544
0.18176
-9.16671e-05
0.181842
-0.000136024
0.18191
-0.000175496
0.181967
-0.000210467
0.182014
-0.000238324
0.182052
-0.000262384
0.182085
-0.000279823
0.182111
-0.000295528
0.182134
-0.000304678
0.182154
-0.000313894
0.182172
-0.000315782
0.182189
-0.000319962
0.182206
-0.000315566
0.182222
-0.000316432
0.18224
-0.000306675
0.182258
-0.000305922
0.182279
-0.00029133
0.182301
-0.000290443
-0.000271212
0.188013
-7.84658e-05
-0.187979
0.188031
-0.000110051
0.188034
-0.000139562
0.188024
-0.000165524
0.188003
-0.000188862
0.187972
-0.000207423
0.187933
-0.000223597
0.187888
-0.000235077
0.187839
-0.000245585
0.187785
-0.000251429
0.187729
-0.000257619
0.187672
-0.000258532
0.187613
-0.000261355
0.187556
-0.000257951
0.187498
-0.000258558
0.187442
-0.000251452
0.187387
-0.000250989
0.187337
-0.000240528
0.187286
-0.000239973
-0.000226306
0.192697
-5.23368e-05
-0.192723
0.192658
-7.06024e-05
0.192604
-8.5841e-05
0.192537
-9.8569e-05
0.192458
-0.000110063
0.19237
-0.000119261
0.192274
-0.000127341
0.192172
-0.00013303
0.192065
-0.000138277
0.191954
-0.000141139
0.191841
-0.000144219
0.191727
-0.000144591
0.191612
-0.000145957
0.191498
-0.000144154
0.191384
-0.000144386
0.191273
-0.000140734
0.191162
-0.0001404
0.191057
-0.000135084
0.190951
-0.000134661
-0.000127645
0.19519
-0.195243
0.19512
0.195034
0.194935
0.194825
0.194706
0.194579
0.194446
0.194307
0.194166
0.194022
0.193877
0.193732
0.193587
0.193443
0.193302
0.193162
0.193027
0.192892
0.0900962
0.0143357
-0.0890424
0.0911661
0.0238671
0.0922704
0.0332167
0.0933656
0.0422592
0.0944793
0.050731
0.095503
0.0586262
0.0962138
0.0657018
0.0967071
0.071438
0.0942885
0.0772846
0.0761152
0.0930163
0.013396
-0.0920766
0.0940195
0.0228639
0.0951161
0.0321202
0.0962778
0.0410975
0.0974467
0.0495621
0.0987685
0.0573044
0.0996749
0.0647954
0.101083
0.0700299
0.101062
0.0773057
0.0775397
0.0961865
0.0125605
-0.095351
0.0971453
0.0219051
0.0982094
0.0310561
0.0994386
0.0398682
0.100631
0.0483701
0.102143
0.0557918
0.103348
0.0635902
0.104926
0.0684527
0.106303
0.0759285
0.0775917
0.0994635
0.0117991
-0.0987021
0.100422
0.0209468
0.101496
0.0299818
0.102811
0.038553
0.104113
0.0470683
0.105705
0.0541998
0.107244
0.0620515
0.10876
0.0669364
0.110652
0.0740366
0.0765931
0.102721
0.0110788
-0.102001
0.10371
0.0199582
0.104864
0.0288279
0.106284
0.037133
0.10779
0.0455614
0.109452
0.0525381
0.11127
0.060234
0.112881
0.0653247
0.114929
0.071989
0.0749714
0.105841
0.0103669
-0.105129
0.106878
0.0189214
0.108165
0.0275412
0.109717
0.0355803
0.111477
0.0438017
0.113313
0.0507024
0.115398
0.0581489
0.117316
0.0634068
0.119517
0.0697876
0.0729812
0.108719
0.00963626
-0.107988
0.10982
0.0178199
0.111263
0.0260982
0.112989
0.0338544
0.115018
0.0417731
0.117149
0.0485716
0.119545
0.0557532
0.121873
0.0610786
0.124364
0.0672962
0.0706533
0.111297
0.00886986
-0.11053
0.112479
0.0166377
0.114079
0.0244986
0.116008
0.0319244
0.118307
0.0394743
0.12079
0.0460889
0.123547
0.0529966
0.12632
0.0583051
0.129248
0.0643683
0.0678977
0.113606
0.0080602
-0.112796
0.114875
0.0153687
0.116615
0.0227579
0.118747
0.0297926
0.121299
0.0369222
0.124121
0.0432675
0.127261
0.0498562
0.130489
0.0550772
0.133941
0.060916
0.0646107
0.115797
0.0072085
-0.114946
0.117143
0.0140234
0.118995
0.0209054
0.121291
0.0274973
0.124054
0.0341587
0.127157
0.0401649
0.130654
0.0463591
0.13431
0.0514212
0.138286
0.0569397
0.0607392
0.118144
0.0063285
-0.117264
0.119541
0.0126271
0.121465
0.0189811
0.123865
0.0250971
0.126776
0.0312476
0.130079
0.0368622
0.133851
0.0425869
0.137859
0.0474131
0.142272
0.0525268
0.0563137
0.120995
0.00543024
-0.120096
0.122405
0.011217
0.124358
0.0170281
0.126807
0.0226476
0.129798
0.0282572
0.13322
0.0334401
0.137159
0.0386479
0.141412
0.0431593
0.146123
0.047816
0.0514465
0.124641
0.00456468
-0.123775
0.126035
0.00982294
0.127987
0.0150767
0.130454
0.0201797
0.13348
0.0252311
0.136973
0.0299473
0.140999
0.0346223
0.145409
0.0387491
0.150293
0.0429324
0.046283
0.129163
0.00376678
-0.128365
0.130524
0.00846175
0.132469
0.0131316
0.134966
0.017683
0.138036
0.022161
0.141612
0.0263709
0.145723
0.0305114
0.150271
0.0342011
0.155292
0.0379113
0.0409119
0.134287
0.0030543
-0.133575
0.135624
0.00712498
0.13759
0.0111657
0.140163
0.0151096
0.14334
0.0189839
0.147073
0.0226382
0.151357
0.026228
0.156117
0.0294411
0.161363
0.0326652
0.0352933
0.139443
0.00241232
-0.138801
0.140786
0.00578174
0.142821
0.00913129
0.145532
0.0123979
0.1489
0.0156162
0.152883
0.018655
0.157463
0.0216479
0.162562
0.024342
0.168192
0.0270361
0.0292746
0.144017
0.0018005
-0.143406
0.145403
0.00439581
0.147548
0.00698617
0.150439
0.00950712
0.154053
0.0120021
0.158347
0.0143613
0.163306
0.0166891
0.168842
0.018806
0.174973
0.0209049
0.0227033
0.147654
0.00118875
-0.147042
0.149096
0.0029536
0.151359
0.00472309
0.154425
0.00644119
0.158279
0.00814788
0.162875
0.00976522
0.168204
0.0113601
0.174181
0.0128288
0.180818
0.0142682
0.0155423
0.150256
0.000585438
-0.149653
0.151732
0.00147829
0.154076
0.00237811
0.157268
0.00324977
0.161298
0.00411746
0.166122
0.00494125
0.17173
0.0057523
0.178052
0.00650654
0.185082
0.00723852
0.00790103
0.151679
-0.151094
0.153158
0.155536
0.158786
0.162903
0.167844
0.173597
0.180103
0.187342
0.0423432
0.0515958
-0.0455071
-0.0484318
0.0363127
0.0502315
-0.044201
0.030697
0.0493383
-0.0437226
0.025401
0.0490044
-0.0437084
0.0203076
0.0491421
-0.0440488
0.0153485
0.0497331
-0.044774
0.0105061
0.0506362
-0.0457938
0.00589765
0.0507251
-0.0461166
0.00200091
0.0459334
-0.0420367
0.0263911
-0.0243902
0.040574
0.0575917
-0.0465699
0.0347152
0.0560902
0.0291491
0.0549044
0.0239141
0.0542394
0.0189349
0.0541213
0.0141308
0.0545373
0.00948614
0.0552808
0.00515176
0.0550594
0.00163589
0.0494493
0.028027
0.0378921
0.0632465
-0.0435469
0.0323234
0.0616589
0.0269614
0.0602665
0.0218897
0.0593111
0.0170907
0.0589202
0.0125068
0.0591212
0.00814066
0.059647
0.00418402
0.0590161
0.00116919
0.0524641
0.0291962
0.034126
0.0685202
-0.0393998
0.0289743
0.0668107
0.0239811
0.0652596
0.019225
0.0640672
0.0147232
0.063422
0.0104532
0.0633912
0.00645857
0.0636416
0.00299361
0.062481
0.000600809
0.0548569
0.029797
0.0293509
0.0733337
-0.0341644
0.0246925
0.0714691
0.0201882
0.0697639
0.0158843
0.0683711
0.0118057
0.0675006
0.00795902
0.0672379
0.00443329
0.0671674
0.00157421
0.0653401
-7.35381e-05
0.0565047
0.0297234
0.0235949
0.0775559
-0.0278171
0.0195386
0.0755254
0.0156319
0.0736706
0.0118934
0.0721096
0.00834728
0.0710467
0.00503352
0.0705516
0.00209207
0.0701088
-0.000126671
0.0675589
-0.00073566
0.0571137
0.0289878
0.0169759
0.0810601
-0.0204801
0.0136195
0.0788818
0.0103982
0.0768919
0.00731824
0.0751895
0.00439809
0.0739669
0.00172448
0.0732252
-0.000487374
0.0723207
-0.00170582
0.0687773
-0.00142457
0.0568324
0.0275632
0.00961186
0.0837422
-0.012294
0.00704066
0.081453
0.00458562
0.079347
0.00224618
0.077529
4.98761e-05
0.0761632
-0.00190329
0.0751784
-0.00326507
0.0736825
-0.00348701
0.0689992
-0.00210192
0.0554473
0.0254613
0.00164596
0.085577
-0.0034808
-6.59674e-05
0.0831649
-0.00169423
0.0809752
-0.00325544
0.0790902
-0.00469057
0.0775983
-0.00580657
0.0762944
-0.0062089
0.0740848
-0.00527927
0.0680696
-0.00271471
0.0528828
0.0227466
-0.00671324
0.00588125
-0.00753275
-0.00831963
-0.00905493
-0.00965301
-0.00985967
-0.00917074
-0.00696147
-0.00319589
0.0321283
0.00304196
-0.0351703
0.0289652
0.00316307
0.0256617
0.00330348
0.0221972
0.00346451
0.0185436
0.00365362
0.0146675
0.00387611
0.0105509
0.00411661
0.00628185
0.00426905
0.00231508
0.00396677
0.00231508
0.0327179
0.00621592
-0.0358919
0.0294383
0.0064427
0.0260334
0.00670839
0.0224823
0.00701561
0.0187564
0.00737955
0.014821
0.0078115
0.0106549
0.00828273
0.00634254
0.00858137
0.0023446
0.00796471
0.00465968
0.033836
0.00964106
-0.0372611
0.0303343
0.00994442
0.0267357
0.0103069
0.0230189
0.0107325
0.0191541
0.0112444
0.0151049
0.0118607
0.0108469
0.0125407
0.00645861
0.0129696
0.00239142
0.0120319
0.0070511
0.0353645
0.0134097
-0.0391332
0.0315576
0.0137514
0.0276918
0.0141727
0.0237458
0.0146785
0.0196891
0.0153011
0.0154832
0.0160666
0.0110992
0.0169248
0.00660766
0.0174611
0.00245178
0.0161878
0.00950287
0.0371415
0.0175796
-0.0413114
0.0329749
0.0179179
0.0287929
0.0183547
0.0245758
0.0188956
0.0202926
0.0195842
0.0159025
0.0204568
0.0113719
0.0214553
0.00676367
0.0220693
0.00251276
0.0204387
0.0120156
0.0389827
0.0221675
-0.0435706
0.034433
0.0224676
0.0299112
0.0228766
0.0254034
0.0234034
0.0208794
0.0241083
0.0162957
0.0250405
0.0116149
0.0261362
0.00689327
0.0267909
0.0025588
0.0247732
0.0145744
0.0406761
0.0271766
-0.0456852
0.0357436
0.0274001
0.0308928
0.0277273
0.026111
0.0281852
0.0213601
0.0288591
0.0165943
0.0298064
0.0117764
0.030954
0.00696127
0.0316061
0.00257339
0.0291611
0.0171478
0.0421011
0.0325906
-0.0475151
0.0367765
0.0327247
0.0316104
0.0328934
0.0265807
0.033215
0.0216333
0.0338064
0.0167182
0.0347215
0.0117982
0.0358741
0.00692988
0.0364744
0.0025393
0.0335516
0.0196871
0.0428517
0.0385132
-0.0487743
0.0372169
0.0383595
0.0318706
0.0382397
0.026683
0.0384026
0.0215994
0.0388901
0.016589
0.0397319
0.0116217
0.0408413
0.00676103
0.041335
0.00243973
0.0378729
0.0221268
0.0429922
-0.0499861
0.0371507
0.0316677
0.0263619
0.0212032
0.0161612
0.0112087
0.00642709
0.00226333
0.0387491
-0.000101523
0.0388498
-0.000100729
0.0389474
-9.75478e-05
0.0390375
-9.01972e-05
0.0391169
-7.93305e-05
0.039182
-6.50751e-05
0.039229
-4.70039e-05
0.0392533
-2.43481e-05
0.0392494
3.89003e-06
0.0392158
3.36076e-05
0.0391455
7.02927e-05
0.0390314
0.000114119
0.0388653
0.000166083
0.0386378
0.000227548
0.0383375
0.00030023
0.0379513
0.000386221
0.0374631
0.000488192
0.0368539
0.000609238
0.0361001
0.000753741
0.00092988
0.0396072
-0.00020426
0.0397074
-0.000200947
0.039803
-0.000193115
0.0398907
-0.000177907
0.0399674
-0.000156021
0.0400296
-0.000127285
0.0400734
-9.07846e-05
0.040094
-4.49934e-05
0.0400867
1.11746e-05
0.0400487
7.15977e-05
0.0399732
0.00014578
0.039853
0.000234347
0.0396798
0.00033932
0.0394439
0.000463435
0.039134
0.000610134
0.0387366
0.00078359
0.0382356
0.000989197
0.0376119
0.001233
0.0368418
0.00152384
0.00187973
0.0412947
-0.000298804
0.0413873
-0.000293499
0.0414756
-0.000281395
0.0415559
-0.0002582
0.0416247
-0.000224893
0.0416786
-0.000181157
0.0417134
-0.000125534
0.0417239
-5.55243e-05
0.0417071
2.80133e-05
0.0416578
0.000120863
0.0415695
0.000234082
0.0414347
0.000369116
0.041245
0.000529052
0.0409904
0.000718024
0.0406593
0.000941232
0.040238
0.0012049
0.0397099
0.00151725
0.0390559
0.00188704
0.0382525
0.00232726
0.00287106
0.0437515
-0.000375145
0.0438257
-0.000367736
0.0438959
-0.000351549
0.043958
-0.000320359
0.0440083
-0.000275194
0.0440429
-0.000215709
0.0440573
-0.000139956
0.0440463
-4.4556e-05
0.0440092
6.51733e-05
0.043937
0.000193092
0.0438234
0.000347587
0.0436611
0.00053144
0.0434412
0.000748953
0.0431535
0.00100574
0.0427859
0.00130879
0.0423244
0.00166643
0.041752
0.0020897
0.0410486
0.00259036
0.0401925
0.00318343
0.00393032
0.0468955
-0.00041638
0.0469344
-0.000406556
0.0469688
-0.000386024
0.0469952
-0.000346669
0.0470092
-0.000289275
0.0470069
-0.000213404
0.0469837
-0.000116737
0.0469316
7.59122e-06
0.0468559
0.000140874
0.046742
0.00030691
0.0465844
0.000505252
0.0463753
0.000740553
0.0461057
0.00101854
0.0457649
0.00134657
0.0453405
0.00173318
0.0448176
0.00218925
0.0441793
0.00272804
0.0434034
0.00336629
0.0424718
0.00411504
0.00509071
0.0506319
-0.000398183
0.0506106
-0.000385242
0.0505837
-0.000359182
0.0505479
-0.000310885
0.0504992
-0.000240515
0.0504329
-0.000147087
0.0503415
-2.53269e-05
0.0502345
0.000114576
0.0500908
0.000284596
0.0499081
0.000489581
0.0496797
0.000733636
0.0493972
0.00102301
0.0490516
0.00136419
0.0486312
0.00176699
0.0481237
0.00224066
0.0475124
0.00280052
0.0467814
0.00345903
0.0459034
0.00424432
0.0448701
0.00514834
0.00639022
0.054863
-0.000287603
0.054748
-0.000270274
0.0546255
-0.000236706
0.0544935
-0.000178865
0.0543474
-9.43984e-05
0.0541806
1.97427e-05
0.0540005
0.000154779
0.0537907
0.000324364
0.0535461
0.000529138
0.0532611
0.000774658
0.0529287
0.00106604
0.0525397
0.00141193
0.0520857
0.00181827
0.0515532
0.0022995
0.0509318
0.002862
0.0502007
0.00353164
0.0493488
0.00431098
0.0483328
0.00526027
0.047154
0.00632713
0.00785906
0.0595004
-4.01294e-05
0.0592476
-1.75266e-05
0.0589847
2.62569e-05
0.0587122
9.36361e-05
0.0584283
0.000189457
0.0581313
0.000316774
0.057809
0.000477096
0.0574579
0.000675474
0.0570722
0.000914764
0.0566447
0.00120219
0.0561688
0.00154191
0.0556339
0.0019469
0.0550326
0.00241952
0.054348
0.00298414
0.0535745
0.00363549
0.0526816
0.00442449
0.0516754
0.00531719
0.0504887
0.00644699
0.0491712
0.00764458
0.00951517
0.0644717
0.000386714
0.0640293
0.000424954
0.0635776
0.000477956
0.0631188
0.000552423
0.0626504
0.00065786
0.0621657
0.000801419
0.061658
0.000984871
0.0611213
0.00121218
0.0605507
0.00148535
0.0599379
0.00181497
0.0592775
0.00220225
0.0585564
0.00266808
0.057771
0.00320486
0.0568964
0.00385877
0.0559394
0.00459251
0.0548416
0.00552229
0.053649
0.0065098
0.0522108
0.00788514
0.0507223
0.00913311
0.0114632
0.0697543
0.00111245
0.0690503
0.00112895
0.0683525
0.00117574
0.0676551
0.00124976
0.066951
0.00136204
0.0662309
0.00152144
0.0654891
0.0017267
0.0647199
0.0019814
0.06392
0.00228526
0.0630805
0.0026544
0.0621984
0.00308439
0.0612583
0.00360817
0.0602639
0.00419929
0.0591848
0.00493785
0.0580501
0.00572725
0.056781
0.00679139
0.0554975
0.00779329
0.0539189
0.00946371
0.0524651
0.0105869
0.0139422
0.0695888
0.00114586
0.0695716
0.00114615
0.0695665
0.00118091
0.069573
0.00124322
0.0695845
0.00135054
0.0695951
0.00151085
0.0696061
0.00171571
0.0696196
0.00196788
0.0696408
0.00226404
0.0696697
0.00262555
0.0697154
0.00303867
0.0697759
0.00354769
0.0698739
0.00410125
0.0699986
0.00481317
0.0702059
0.00551988
0.0704548
0.00654258
0.0708934
0.00735468
0.0714426
0.00891449
0.0725704
0.00945915