/*--------------------------------*- C++ -*----------------------------------*\
| =========                 |                                                 |
| \\      /  F ield         | OpenFOAM: The Open Source CFD Toolbox           |
|  \\    /   O peration     | Version:  4.1                                   |
|   \\  /    A nd           | Web:      www.OpenFOAM.org                      |
|    \\/     M anipulation  |                                                 |
\*---------------------------------------------------------------------------*/
FoamFile
{
    version     2.0;
    format      ascii;
    class       volVectorField;
    location    "13";
    object      U;
}
// * * * * * * * * * * * * * * * * * * * * * * * * * * * * * * * * * * * * * //

dimensions      [0 1 -1 0 0 0 0];

internalField   nonuniform List<vector> 
2000
(
(-0.0242887 0.0217555 2.05548e-21)
(0.00741525 0.0192473 0)
(0.106484 0.00541 -1.60461e-21)
(0.257396 -0.0100765 -1.91562e-21)
(0.443685 -0.0211122 3.68358e-21)
(0.64528 -0.0257169 8.25439e-21)
(0.84438 -0.0236647 -2.61944e-21)
(1.02315 -0.0193391 0)
(1.19366 -0.00775519 3.57227e-21)
(1.29922 -0.00102836 0)
(-0.0175109 0.0151734 -8.97305e-22)
(0.0495647 0.00130038 -2.05345e-22)
(0.201443 -0.0151813 -1.72211e-21)
(0.410129 -0.0266787 1.57259e-21)
(0.644243 -0.0294365 -7.17309e-22)
(0.87342 -0.0244737 -3.02141e-21)
(1.07683 -0.014684 2.12807e-21)
(1.2447 -0.00464321 3.15461e-21)
(1.38123 0.00786774 -3.57209e-21)
(1.46352 0.00851026 -8.06359e-21)
(-0.00410399 0.00690972 2.23895e-21)
(0.112712 -0.0176274 -2.09716e-21)
(0.328568 -0.0318952 9.65402e-22)
(0.593721 -0.0338897 -1.1818e-21)
(0.858813 -0.0253501 -1.13473e-21)
(1.08953 -0.0113533 -1.939e-21)
(1.27207 0.00321098 -2.61113e-21)
(1.40753 0.014766 -3.15453e-21)
(1.50562 0.02372 -3.82364e-21)
(1.57485 0.0244876 4.29462e-21)
(0.0180687 -0.00246735 -6.10566e-22)
(0.199795 -0.0344067 -3.28532e-21)
(0.484277 -0.0397816 0)
(0.79149 -0.0281577 -4.01642e-22)
(1.06098 -0.00894965 -8.27404e-22)
(1.26776 0.0101931 0)
(1.41369 0.0250152 0)
(1.5129 0.0339429 0)
(1.58411 0.0393943 3.8238e-21)
(1.63301 0.0376113 -9.26154e-21)
(0.0509087 -0.0117093 1.13898e-20)
(0.310777 -0.0445876 -9.63076e-23)
(0.657379 -0.034646 3.07075e-21)
(0.981628 -0.00910642 5.39957e-22)
(1.22972 0.0165898 5.42724e-22)
(1.39814 0.035879 -4.7956e-22)
(1.50647 0.0473898 0)
(1.57838 0.0525673 -1.94329e-21)
(1.63187 0.0540747 1.23417e-20)
(1.67789 0.0502858 -1.70681e-20)
(0.0955057 -0.0189118 -2.01294e-20)
(0.440991 -0.0434826 1.47284e-21)
(0.831308 -0.0148584 -5.93683e-21)
(1.14604 0.0208822 4.42055e-21)
(1.35696 0.047673 -6.91427e-22)
(1.48553 0.0633065 6.1918e-22)
(1.56407 0.0700745 0)
(1.61843 0.0712079 1.94343e-21)
(1.6647 0.069361 -2.44175e-21)
(1.70929 0.0648722 -1.37596e-20)
(0.151626 -0.0216858 0)
(0.580984 -0.027739 0)
(0.990083 0.0184413 -3.42883e-21)
(1.27584 0.0586825 3.192e-21)
(1.44512 0.0820507 7.07076e-23)
(1.5397 0.0919217 -6.63843e-23)
(1.5975 0.0934645 -4.58745e-21)
(1.64238 0.09072 4.33619e-21)
(1.68562 0.0860491 7.10115e-21)
(1.7311 0.080608 -3.3851e-21)
(0.217145 -0.0176201 5.14002e-21)
(0.718627 0.00344508 0)
(1.12312 0.0626272 -1.2827e-21)
(1.37005 0.101741 4.71575e-21)
(1.50043 0.118563 -1.19789e-21)
(1.56895 0.12162 0)
(1.6137 0.117894 0)
(1.654 0.111409 0)
(1.69691 0.104174 8.7963e-21)
(1.74347 0.0977323 -8.36133e-21)
(0.288021 -0.00492722 -2.7823e-21)
(0.842588 0.0483934 -3.10566e-22)
(1.22569 0.11474 -2.35132e-21)
(1.43152 0.148142 3.29553e-22)
(1.52905 0.156448 3.85417e-22)
(1.57907 0.152276 -6.63686e-22)
(1.61628 0.143358 0)
(1.65493 0.133249 1.27084e-21)
(1.69829 0.123653 6.92243e-21)
(1.74573 0.115558 -5.21306e-21)
(0.358887 0.0171086 0)
(0.944824 0.103931 -1.89772e-21)
(1.29694 0.171885 0)
(1.46422 0.196342 -3.91785e-22)
(1.53586 0.195036 -3.49093e-22)
(1.57353 0.183553 6.3881e-22)
(1.60686 0.169533 0)
(1.64531 0.155844 -1.27096e-21)
(1.68945 0.143857 -1.43777e-21)
(1.7377 0.133528 -1.80031e-21)
(-0.00445394 0.00434554 0)
(-0.0184188 0.00836796 7.18629e-22)
(-0.0386456 0.00982632 0)
(-0.0582677 0.0100079 8.91499e-22)
(-0.0757042 0.00954324 2.69402e-22)
(-0.0906919 0.00880536 -5.08493e-22)
(-0.103333 0.00804104 4.78872e-22)
(-0.11396 0.00742086 -4.44339e-22)
(-0.123079 0.00708314 -3.566e-24)
(-0.131515 0.00716549 -3.93676e-22)
(-0.00544907 0.0126336 2.33006e-21)
(-0.0196281 0.0243546 -1.43952e-21)
(-0.0387244 0.0286104 1.25121e-21)
(-0.0565316 0.0290817 -5.90679e-22)
(-0.071693 0.0276085 -2.68519e-21)
(-0.0840011 0.0252856 1.00976e-21)
(-0.0935751 0.0228459 0)
(-0.100725 0.0208187 4.42852e-22)
(-0.105846 0.0196402 4.16683e-22)
(-0.11 0.0197546 0)
(-0.0073435 0.0197874 -1.55472e-21)
(-0.0219777 0.038232 0)
(-0.0389681 0.0448943 -3.69101e-21)
(-0.0533545 0.0454289 4.52315e-21)
(-0.0641893 0.0427322 -1.04076e-21)
(-0.0713974 0.038534 0)
(-0.0751483 0.0340074 0)
(-0.0757677 0.0300627 0)
(-0.073418 0.0275157 -3.3653e-21)
(-0.0689759 0.0272842 3.19839e-21)
(-0.00994542 0.0253284 0)
(-0.0252827 0.0489938 2.51138e-21)
(-0.0393913 0.0573618 -4.63986e-21)
(-0.0489565 0.0575751 2.15373e-21)
(-0.0536179 0.0533629 -2.02391e-21)
(-0.0535285 0.0469348 5.73829e-21)
(-0.048949 0.0397738 5.52508e-23)
(-0.040341 0.0330904 -3.47031e-21)
(-0.0277905 0.0282931 -3.48269e-21)
(-0.0101021 0.027964 5.04566e-21)
(-0.0130387 0.0291107 -2.6598e-21)
(-0.0291848 0.0560687 4.53375e-21)
(-0.0396247 0.065123 -1.05923e-22)
(-0.0428761 0.0644705 5.52215e-23)
(-0.0392952 0.0584445 -2.0165e-21)
(-0.0293619 0.0495609 5.48076e-21)
(-0.0134935 0.0394236 0)
(0.00775045 0.0293491 1.76702e-21)
(0.0345903 0.0213667 -1.78449e-21)
(0.0688907 0.020008 6.86321e-21)
(-0.0164162 0.0312449 -1.64094e-22)
(-0.0330574 0.0592646 -4.26339e-21)
(-0.0385717 0.0676782 -2.05809e-21)
(-0.0333066 0.0654419 -1.67754e-21)
(-0.0183605 0.057326 -1.88067e-21)
(0.00542369 0.0460615 -1.82175e-21)
(0.0373879 0.0332601 0)
(0.0765757 0.0200593 -1.76693e-21)
(0.122656 0.00828281 -5.88461e-21)
(0.183327 0.00504126 1.42666e-21)
(-0.0198665 0.031958 2.44086e-23)
(-0.0358609 0.0585991 -1.76332e-21)
(-0.0340974 0.0648393 0)
(-0.0165954 0.0601226 3.91207e-21)
(0.0148411 0.0496364 -3.36835e-21)
(0.0589335 0.036355 0)
(0.114553 0.0219929 0)
(0.17994 0.00756111 0)
(0.251022 -0.00700893 3.71212e-21)
(0.351015 -0.0107271 7.30823e-21)
(-0.0231129 0.0314344 1.49627e-21)
(-0.0359861 0.0541998 -1.4016e-21)
(-0.0227207 0.0566374 -2.7595e-21)
(0.013007 0.0485321 3.59618e-22)
(0.0686965 0.0355527 -3.13738e-21)
(0.142077 0.0209414 -3.28067e-21)
(0.230604 0.00666911 -3.42862e-21)
(0.331062 -0.00574524 -3.60145e-21)
(0.431662 -0.0201575 -3.71169e-21)
(0.579545 -0.0200567 4.30251e-21)
(-0.0256075 0.0296692 2.21235e-21)
(-0.0311235 0.0461407 1.44642e-21)
(0.000409254 0.0433729 5.37536e-21)
(0.063185 0.0314726 2.9506e-21)
(0.15327 0.0165727 3.0197e-22)
(0.265817 0.00213844 3.5914e-21)
(0.394907 -0.00974879 -3.09697e-21)
(0.533534 -0.0172939 3.60101e-21)
(0.665593 -0.0268763 -3.70938e-21)
(0.847032 -0.0186173 8.0571e-21)
(-0.0264224 0.0265252 -1.18267e-21)
(-0.0179972 0.0344399 0)
(0.0413156 0.0258077 -2.12575e-21)
(0.142364 0.0108496 3.38547e-23)
(0.277345 -0.00397152 4.47874e-22)
(0.43569 -0.0153606 -3.33005e-21)
(0.605979 -0.0215675 9.36879e-21)
(0.774098 -0.0231753 0)
(0.935529 -0.0226247 3.70888e-21)
(1.10599 -0.00739797 0)
(-0.1401 0.00758046 0)
(-0.149381 0.00748505 3.60319e-22)
(-0.158418 0.00720946 -7.13179e-22)
(-0.167118 0.00690196 3.09327e-22)
(-0.175506 0.00658033 0)
(-0.183561 0.00624174 -3.14097e-22)
(-0.191253 0.00588464 3.15653e-22)
(-0.198553 0.00550865 0)
(-0.20543 0.00511563 0)
(-0.211858 0.00471038 -3.19879e-23)
(-0.217816 0.00430099 0)
(-0.223295 0.00389891 0)
(-0.228302 0.00351877 0)
(-0.232868 0.00317789 0)
(-0.237035 0.00289452 3.22152e-23)
(-0.24086 0.00268427 -3.23821e-23)
(-0.244474 0.00255807 0)
(-0.248198 0.00252507 5.75966e-24)
(-0.252248 0.00258203 -5.78996e-24)
(-0.255373 0.00266082 0)
(-0.115585 0.0210869 0)
(-0.123339 0.0208557 -9.17802e-23)
(-0.130824 0.0201941 0)
(-0.138061 0.019453 -1.32331e-21)
(-0.145192 0.0186659 1.28796e-21)
(-0.152199 0.0178191 -8.17654e-23)
(-0.159043 0.016912 6.00623e-22)
(-0.165691 0.0159416 -1.24426e-21)
(-0.172109 0.0149107 1.02975e-21)
(-0.178261 0.0138303 -5.65481e-22)
(-0.184117 0.0127206 -4.48572e-22)
(-0.189648 0.0116119 8.00771e-22)
(-0.19484 0.0105444 -4.06248e-22)
(-0.199692 0.00956766 -1.97411e-22)
(-0.204219 0.00873662 1.55616e-22)
(-0.208439 0.00810227 -2.98755e-23)
(-0.212434 0.00770259 -2.31831e-23)
(-0.216497 0.00756694 -2.34833e-23)
(-0.220926 0.00769914 2.3597e-23)
(-0.224501 0.0079363 -1.72621e-24)
(-0.0691737 0.0300866 9.34958e-23)
(-0.0742151 0.0296436 9.19406e-23)
(-0.0787174 0.0290028 9.21505e-23)
(-0.0830969 0.0282685 0)
(-0.0876904 0.0274864 1.51551e-21)
(-0.092491 0.0265649 -1.18295e-21)
(-0.0974417 0.0255411 0)
(-0.102519 0.0244028 1.50361e-22)
(-0.107692 0.0231473 6.94585e-23)
(-0.112928 0.0217824 -8.71989e-22)
(-0.118186 0.0203294 8.96212e-23)
(-0.123425 0.0188251 1.0318e-21)
(-0.128604 0.0173233 5.0264e-23)
(-0.133686 0.0158946 4.22608e-23)
(-0.138638 0.0146248 3.7725e-23)
(-0.143422 0.0136032 -7.73696e-23)
(-0.148031 0.0129049 7.54292e-23)
(-0.152679 0.012592 7.95884e-23)
(-0.157755 0.0127211 1.40323e-23)
(-0.16215 0.013142 -1.73216e-24)
(-0.00321489 0.0313606 2.91832e-21)
(-0.00553218 0.0317155 -1.16174e-23)
(-0.0059501 0.0315768 -1.48842e-22)
(-0.00653639 0.0312115 -2.9721e-21)
(-0.00764688 0.0308266 -2.68957e-22)
(-0.00929865 0.0303569 -8.39637e-23)
(-0.0113328 0.0297652 2.38238e-21)
(-0.0137988 0.0290151 -1.42852e-21)
(-0.0166857 0.0280995 -1.20986e-21)
(-0.0199804 0.0270162 1.12193e-21)
(-0.0236619 0.0257747 -9.15378e-23)
(-0.0277 0.0244022 -1.13617e-21)
(-0.0320557 0.0229465 -4.9846e-23)
(-0.0366821 0.0214774 -4.26526e-22)
(-0.0415229 0.0200885 2.96446e-22)
(-0.0465012 0.0188916 2.25578e-22)
(-0.0515249 0.0179943 -1.98076e-22)
(-0.0566547 0.0174906 0)
(-0.0623211 0.0175065 -2.92442e-23)
(-0.0678401 0.0180458 -1.73842e-24)
(0.0838265 0.0248184 -6.66552e-21)
(0.0857801 0.0269158 2.91929e-21)
(0.0875408 0.0272169 -3.1219e-21)
(0.0902386 0.0273768 0)
(0.0926764 0.0276898 1.81857e-22)
(0.0944316 0.0280392 2.8286e-21)
(0.095582 0.0282414 3.95688e-23)
(0.0961827 0.0282719 -1.45538e-22)
(0.0962199 0.0281305 -2.5671e-21)
(0.0956619 0.0278065 -1.40449e-22)
(0.0944879 0.0272936 0)
(0.0926883 0.0266017 1.1774e-22)
(0.090264 0.0257598 0)
(0.087228 0.0248172 9.25897e-23)
(0.0836104 0.0238465 0)
(0.0794671 0.0229469 0)
(0.0749024 0.0222273 -5.12764e-23)
(0.0699828 0.0217793 6.00047e-23)
(0.0643572 0.0217097 -5.31724e-23)
(0.0579912 0.022232 1.32928e-23)
(0.204052 0.0132055 0)
(0.208051 0.0166251 1.98642e-22)
(0.210055 0.0174338 6.51782e-21)
(0.214046 0.0181692 -6.30882e-21)
(0.218457 0.0192737 2.04369e-22)
(0.222276 0.0204247 0)
(0.225534 0.021416 2.89531e-21)
(0.228378 0.0222526 -5.46489e-21)
(0.230787 0.0229618 2.92794e-21)
(0.232678 0.0235335 1.6405e-22)
(0.233983 0.02395 1.52472e-22)
(0.234647 0.0242083 1.39902e-22)
(0.234623 0.0243211 0)
(0.23387 0.0243158 -6.75038e-22)
(0.232365 0.0242352 1.55194e-21)
(0.230101 0.0241481 -6.67789e-22)
(0.227121 0.0241362 6.45475e-23)
(0.223477 0.0242876 4.69822e-23)
(0.219033 0.0246076 -1.61175e-23)
(0.212846 0.0254429 1.62238e-23)
(0.372831 0.000319671 -7.61513e-21)
(0.376062 0.0050183 0)
(0.375383 0.00599408 2.15808e-22)
(0.377662 0.00701077 -4.28449e-22)
(0.381361 0.00868754 -4.2014e-22)
(0.384859 0.0103754 -2.10121e-22)
(0.388057 0.0118296 -2.03962e-22)
(0.391178 0.0131661 2.78043e-21)
(0.394194 0.01446 -3.31763e-21)
(0.396966 0.0157019 -2.96148e-21)
(0.399388 0.0168692 2.46587e-21)
(0.401377 0.0179562 -2.90181e-22)
(0.402861 0.0189662 9.91639e-22)
(0.403758 0.019914 -2.28946e-22)
(0.404014 0.020817 -1.07125e-21)
(0.403562 0.0217227 -9.02196e-23)
(0.402418 0.022666 9.86366e-23)
(0.400469 0.0237681 -1.19989e-22)
(0.398093 0.0249373 -1.91938e-22)
(0.393128 0.026713 -1.0222e-23)
(0.595825 -0.0076051 0)
(0.595788 -0.00309498 6.87666e-21)
(0.590877 -0.0032071 -7.06312e-21)
(0.589567 -0.00240568 2.20098e-22)
(0.59057 -0.000500476 4.42304e-22)
(0.591733 0.00124893 2.09937e-22)
(0.59293 0.00270835 4.19143e-22)
(0.594402 0.00416252 0)
(0.596066 0.00569429 1.85818e-22)
(0.597734 0.00728009 1.74976e-22)
(0.599292 0.00888838 1.76693e-22)
(0.600662 0.0105102 3.13298e-22)
(0.601784 0.0121374 0)
(0.602567 0.0137791 0)
(0.602989 0.0154264 1.04876e-22)
(0.602916 0.0171299 8.62559e-22)
(0.602498 0.0188567 -6.02642e-22)
(0.601277 0.020798 5.86535e-23)
(0.600364 0.0226666 1.14572e-22)
(0.596781 0.0255717 -3.53444e-23)
(0.854654 -0.00476187 -8.38265e-21)
(0.851771 -0.00262864 0)
(0.845515 -0.00496197 0)
(0.842635 -0.00502395 7.5214e-21)
(0.841442 -0.00403307 -3.2043e-22)
(0.840196 -0.00321604 -1.45226e-20)
(0.838982 -0.00235726 6.93522e-21)
(0.838012 -0.00123386 0)
(0.837181 9.01408e-05 0)
(0.836346 0.00160552 0)
(0.835457 0.00327469 -8.06647e-23)
(0.834483 0.00507974 -2.4757e-22)
(0.833452 0.00698498 -2.31586e-21)
(0.832273 0.00899241 2.22903e-21)
(0.831058 0.0110468 -8.81822e-22)
(0.829544 0.0132247 7.79934e-22)
(0.828209 0.0153728 0)
(0.826117 0.0178492 -2.54644e-23)
(0.825135 0.0198931 -3.56004e-23)
(0.821727 0.0235233 0)
(1.12004 -0.00173123 1.12086e-22)
(1.12152 -0.00692889 7.23952e-21)
(1.11959 -0.00963741 -7.16426e-21)
(1.1177 -0.00869648 0)
(1.11497 -0.00718898 -7.61866e-21)
(1.11126 -0.00584926 1.50509e-20)
(1.10709 -0.00437487 -7.43392e-21)
(1.1027 -0.00271793 0)
(1.09828 -0.000863529 -3.36274e-21)
(1.09392 0.00110298 6.5015e-21)
(1.08964 0.00312166 -3.23318e-21)
(1.08542 0.00519959 8.5265e-23)
(1.08141 0.00730201 0)
(1.07745 0.0094685 2.23997e-21)
(1.07386 0.0116038 -3.08403e-21)
(1.07013 0.0138716 9.25161e-22)
(1.06717 0.0159513 5.99761e-22)
(1.06351 0.018469 -4.17112e-22)
(1.0617 0.0201697 -2.05573e-22)
(1.05769 0.023564 0)
(1.4056 0.00567642 0)
(1.38941 0.00196391 0)
(1.37698 0.000387433 0)
(1.36537 0.000133413 0)
(1.35442 0.000302719 0)
(1.34453 0.000740293 0)
(1.33577 0.00145586 0)
(1.32796 0.00245032 0)
(1.32088 0.0037294 0)
(1.3143 0.00519321 0)
(1.30826 0.00678449 0)
(1.30259 0.00850563 0)
(1.29743 0.0102918 0)
(1.29245 0.0122058 0)
(1.28809 0.0140938 0)
(1.28362 0.0161958 0)
(1.28019 0.0180478 0)
(1.27598 0.0204507 0)
(1.2739 0.0219104 0)
(1.26954 0.0250133 0)
(1.54075 0.0159665 0)
(1.53357 0.0154487 0)
(1.52737 0.0140985 0)
(1.52113 0.0125393 0)
(1.51467 0.0114051 0)
(1.50832 0.0108372 0)
(1.50233 0.0107415 0)
(1.49671 0.0110202 0)
(1.49144 0.0115586 0)
(1.48643 0.0123654 0)
(1.48176 0.0133865 0)
(1.47729 0.0146087 0)
(1.4732 0.0159441 0)
(1.46918 0.0174529 0)
(1.4657 0.0189493 0)
(1.46202 0.0206844 0)
(1.45927 0.0221637 0)
(1.45573 0.0241568 0)
(1.45409 0.0252847 0)
(1.45025 0.0277005 0)
(1.64127 0.0202637 0)
(1.63755 0.0185241 0)
(1.63405 0.0171564 0)
(1.63086 0.0158255 0)
(1.62781 0.0148264 0)
(1.62487 0.0143129 0)
(1.62207 0.0142325 0)
(1.61943 0.0144876 0)
(1.61695 0.0149982 0)
(1.61461 0.0157386 0)
(1.61243 0.0166607 0)
(1.61037 0.0177638 0)
(1.60851 0.0189636 0)
(1.60671 0.0203279 0)
(1.60519 0.0216657 0)
(1.60361 0.0232278 0)
(1.6025 0.0245286 0)
(1.60107 0.0262848 0)
(1.60049 0.0272428 0)
(1.59907 0.0292822 0)
(1.72484 0.0237227 0)
(1.7235 0.0210795 0)
(1.72158 0.0192604 0)
(1.71986 0.0177999 0)
(1.71852 0.0166864 0)
(1.71745 0.0159993 0)
(1.71654 0.0157331 0)
(1.7158 0.0158216 0)
(1.7152 0.0161882 0)
(1.71478 0.0167953 0)
(1.71447 0.0175857 0)
(1.71436 0.0185668 0)
(1.71431 0.0196404 0)
(1.7145 0.020892 0)
(1.71468 0.0221029 0)
(1.71519 0.0235547 0)
(1.71552 0.0247217 0)
(1.71641 0.0263587 0)
(1.71675 0.0271952 0)
(1.71818 0.0291076 0)
(1.80168 0.0256995 0)
(1.80187 0.0225181 0)
(1.80115 0.0202458 0)
(1.80041 0.0185619 0)
(1.8 0.0172984 0)
(1.79994 0.0164347 0)
(1.80005 0.0159651 0)
(1.80036 0.0158552 0)
(1.80074 0.0160357 0)
(1.80139 0.0164747 0)
(1.80208 0.0170972 0)
(1.80311 0.0179282 0)
(1.80407 0.0188421 0)
(1.80551 0.0199615 0)
(1.80663 0.0210179 0)
(1.80855 0.0223559 0)
(1.80969 0.0233732 0)
(1.81226 0.0249148 0)
(1.8131 0.0256319 0)
(1.81663 0.0274701 0)
(1.87891 0.0262817 0)
(1.87989 0.0228735 0)
(1.87995 0.0203316 0)
(1.87981 0.0184684 0)
(1.87987 0.0170821 0)
(1.88029 0.0160887 0)
(1.88085 0.0154586 0)
(1.88164 0.0151773 0)
(1.88245 0.0151806 0)
(1.88357 0.0154531 0)
(1.88466 0.0159007 0)
(1.8862 0.0165716 0)
(1.88753 0.0173091 0)
(1.88955 0.0182781 0)
(1.89102 0.0191602 0)
(1.89365 0.0203619 0)
(1.89506 0.0212167 0)
(1.89849 0.022638 0)
(1.89949 0.0232353 0)
(1.90411 0.0249606 0)
(1.95921 0.0260354 0)
(1.96054 0.0226573 0)
(1.96101 0.0200284 0)
(1.96118 0.0180508 0)
(1.96141 0.0165608 0)
(1.96196 0.0154626 0)
(1.96263 0.014702 0)
(1.96356 0.0142727 0)
(1.96446 0.014111 0)
(1.9657 0.0142213 0)
(1.96683 0.0144952 0)
(1.9685 0.0150015 0)
(1.96986 0.0155597 0)
(1.97204 0.0163648 0)
(1.97351 0.0170692 0)
(1.97634 0.018112 0)
(1.97774 0.0188059 0)
(1.98143 0.0200724 0)
(1.98239 0.0205572 0)
(1.98734 0.0221164 0)
(2.04145 0.0254715 0)
(2.04295 0.0222426 0)
(2.04363 0.0196193 0)
(2.04397 0.0175742 0)
(2.04427 0.0159982 0)
(2.04485 0.0148093 0)
(2.04551 0.0139382 0)
(2.04643 0.0133795 0)
(2.04729 0.0130678 0)
(2.04852 0.0130226 0)
(2.04958 0.0131305 0)
(2.05122 0.0134721 0)
(2.05247 0.0138579 0)
(2.05463 0.0144923 0)
(2.05598 0.015027 0)
(2.05879 0.0158958 0)
(2.06005 0.0164398 0)
(2.06373 0.0175257 0)
(2.06458 0.0179099 0)
(2.06948 0.0192642 0)
(2.12249 0.0247547 0)
(2.12414 0.0216921 0)
(2.12506 0.019111 0)
(2.12563 0.0170365 0)
(2.12608 0.015402 0)
(2.12676 0.0141426 0)
(2.12747 0.0131824 0)
(2.12846 0.012514 0)
(2.12934 0.012072 0)
(2.1306 0.011884 0)
(2.13164 0.0118403 0)
(2.13329 0.0120234 0)
(2.13448 0.0122498 0)
(2.13663 0.0127148 0)
(2.13789 0.0130935 0)
(2.14068 0.0137834 0)
(2.14184 0.014192 0)
(2.14547 0.0150858 0)
(2.14624 0.0153816 0)
(2.15103 0.0165136 0)
(2.19906 0.0237381 0)
(2.20105 0.0208398 0)
(2.20238 0.0183279 0)
(2.20338 0.0162642 0)
(2.20421 0.0146085 0)
(2.20522 0.0133076 0)
(2.20619 0.012285 0)
(2.20744 0.0115315 0)
(2.20852 0.010984 0)
(2.21 0.0106731 0)
(2.21119 0.0104983 0)
(2.21302 0.0105372 0)
(2.21431 0.010623 0)
(2.21661 0.010929 0)
(2.21793 0.0111693 0)
(2.22084 0.0116874 0)
(2.22202 0.0119766 0)
(2.22574 0.0126824 0)
(2.2265 0.0129012 0)
(2.23134 0.0138147 0)
(2.26978 0.0221091 0)
(2.27237 0.0193945 0)
(2.27439 0.0169884 0)
(2.27613 0.0149811 0)
(2.27761 0.0133481 0)
(2.27923 0.0120439 0)
(2.28073 0.0109932 0)
(2.28248 0.0101868 0)
(2.28401 0.00956588 0)
(2.28595 0.00916157 0)
(2.28751 0.00888424 0)
(2.28973 0.00880441 0)
(2.29132 0.00877466 0)
(2.29397 0.00894465 0)
(2.29551 0.00906905 0)
(2.29874 0.00943661 0)
(2.30006 0.00962485 0)
(2.30408 0.0101637 0)
(2.30491 0.0103173 0)
(2.31004 0.011036 0)
(2.33685 0.0195298 0)
(2.34024 0.0170422 0)
(2.34319 0.0147943 0)
(2.34587 0.0128981 0)
(2.34824 0.0113391 0)
(2.35067 0.010079 0)
(2.35289 0.00904399 0)
(2.35534 0.0082284 0)
(2.35749 0.00757584 0)
(2.36004 0.0071202 0)
(2.36213 0.00677852 0)
(2.3649 0.00661881 0)
(2.36692 0.00650723 0)
(2.37005 0.00657815 0)
(2.37192 0.00661568 0)
(2.37557 0.00686907 0)
(2.37713 0.00697902 0)
(2.38154 0.00738843 0)
(2.3825 0.00749026 0)
(2.38803 0.0080568 0)
(2.40663 0.0158166 0)
(2.4108 0.0136144 0)
(2.41463 0.0115928 0)
(2.41823 0.00987295 0)
(2.42145 0.00844647 0)
(2.42465 0.00728547 0)
(2.42756 0.0063183 0)
(2.43066 0.00554695 0)
(2.43339 0.00491297 0)
(2.4365 0.00445819 0)
(2.43907 0.00409826 0)
(2.44232 0.00390812 0)
(2.44471 0.00375549 0)
(2.44823 0.00377502 0)
(2.45039 0.0037602 0)
(2.45437 0.00394689 0)
(2.45612 0.00400492 0)
(2.46081 0.00433404 0)
(2.46186 0.0043991 0)
(2.46763 0.00486761 0)
(2.48765 0.0111918 0)
(2.49214 0.00932913 0)
(2.4964 0.00760051 0)
(2.50046 0.0061187 0)
(2.50412 0.00487857 0)
(2.50769 0.00386839 0)
(2.5109 0.00301808 0)
(2.51426 0.00234203 0)
(2.51721 0.00177459 0)
(2.5205 0.00136946 0)
(2.52322 0.001036 0)
(2.52656 0.000863877 0)
(2.52904 0.000709948 0)
(2.53258 0.000724699 0)
(2.53476 0.000690898 0)
(2.53867 0.000856696 0)
(2.54041 0.000888294 0)
(2.54495 0.00118419 0)
(2.54598 0.00122741 0)
(2.55149 0.00164938 0)
(2.58536 0.00639284 0)
(2.58938 0.00489378 0)
(2.59328 0.00349448 0)
(2.59704 0.00228584 0)
(2.60039 0.00125769 0)
(2.60361 0.000426096 0)
(2.60647 -0.000277987 0)
(2.60941 -0.000827712 0)
(2.61198 -0.001298 0)
(2.61482 -0.00162048 0)
(2.61715 -0.00189847 0)
(2.61999 -0.00202268 0)
(2.62207 -0.00215221 0)
(2.62503 -0.00211388 0)
(2.62684 -0.00214444 0)
(2.63008 -0.00197226 0)
(2.6315 -0.00194993 0)
(2.63522 -0.00166052 0)
(2.63606 -0.00162905 0)
(2.64055 -0.00122536 0)
(2.69668 0.00240035 0)
(2.69951 0.00124394 0)
(2.7023 0.000163993 0)
(2.70499 -0.000777392 0)
(2.70733 -0.00159465 0)
(2.70952 -0.00225222 0)
(2.7114 -0.00281337 0)
(2.7133 -0.00323855 0)
(2.71491 -0.00360939 0)
(2.71669 -0.00384654 0)
(2.7181 -0.0040645 0)
(2.71986 -0.00413909 0)
(2.72109 -0.0042389 0)
(2.7229 -0.00417593 0)
(2.72395 -0.00419731 0)
(2.72594 -0.00401892 0)
(2.72675 -0.0040002 0)
(2.72905 -0.00371934 0)
(2.72951 -0.0036955 0)
(2.7323 -0.00331385 0)
(2.8094 -0.000146626 0)
(2.81078 -0.00100666 0)
(2.81218 -0.00180658 0)
(2.81348 -0.00251019 0)
(2.81452 -0.00313303 0)
(2.81536 -0.0036352 0)
(2.81597 -0.00406997 0)
(2.81653 -0.00438965 0)
(2.81692 -0.0046746 0)
(2.81735 -0.0048452 0)
(2.81761 -0.00501248 0)
(2.81798 -0.00505355 0)
(2.81815 -0.00512986 0)
(2.81852 -0.00505937 0)
(2.81863 -0.00507541 0)
(2.81907 -0.0049101 0)
(2.81914 -0.00489617 0)
(2.81968 -0.00464585 0)
(2.81972 -0.00462874 0)
(2.82041 -0.00429445 0)
(2.90827 -0.00125689 0)
(2.90842 -0.00186281 0)
(2.9086 -0.00241979 0)
(2.90865 -0.00290862 0)
(2.9085 -0.00334929 0)
(2.90811 -0.00370404 0)
(2.90757 -0.0040151 0)
(2.90687 -0.00423867 0)
(2.90615 -0.00444237 0)
(2.9053 -0.00455793 0)
(2.9045 -0.00467816 0)
(2.90356 -0.00469932 0)
(2.90274 -0.00475472 0)
(2.90173 -0.00469347 0)
(2.90097 -0.0047058 0)
(2.8999 -0.00457381 0)
(2.8993 -0.00456487 0)
(2.89815 -0.00436916 0)
(2.89779 -0.00435797 0)
(2.89649 -0.00409916 0)
(2.98117 -0.00118288 0)
(2.98044 -0.00157843 0)
(2.97975 -0.00192751 0)
(2.97889 -0.00222483 0)
(2.97787 -0.0024913 0)
(2.97657 -0.00270373 0)
(2.97518 -0.00289072 0)
(2.97355 -0.00302277 0)
(2.972 -0.00314436 0)
(2.97019 -0.00321063 0)
(2.9686 -0.0032822 0)
(2.96666 -0.00329132 0)
(2.96511 -0.00332397 0)
(2.96304 -0.00328279 0)
(2.96165 -0.00328947 0)
(2.95943 -0.00320496 0)
(2.95832 -0.00319893 0)
(2.95587 -0.00307523 0)
(2.95522 -0.00306809 0)
(2.95239 -0.00290496 0)
(3.01994 -0.00030563 0)
(3.01874 -0.000480692 0)
(3.01758 -0.000627866 0)
(3.01623 -0.000748404 0)
(3.01474 -0.000853213 0)
(3.01294 -0.000936221 0)
(3.01109 -0.00100823 0)
(3.00896 -0.00105961 0)
(3.00695 -0.00110604 0)
(3.00463 -0.00113261 0)
(3.00261 -0.00116018 0)
(3.00013 -0.00116596 0)
(2.99819 -0.00117909 0)
(2.99554 -0.00116692 0)
(2.99381 -0.00117036 0)
(2.99096 -0.00114299 0)
(2.98959 -0.00114153 0)
(2.98644 -0.00110059 0)
(2.98564 -0.00109833 0)
(2.98198 -0.00104373 0)
(1.7896 0.121008 1.75905e-21)
(1.79666 0.108562 0)
(1.79354 0.0954907 -2.87654e-22)
(1.78181 0.0822062 -8.64091e-21)
(1.76011 0.0688345 1.30676e-20)
(1.73244 0.056466 0)
(1.69409 0.0435658 9.85378e-21)
(1.6437 0.0345273 0)
(1.5965 0.0199232 8.43086e-21)
(1.42981 0.00793232 -1.28853e-22)
(1.84905 0.111518 -2.03266e-21)
(1.85421 0.101 3.8393e-22)
(1.85003 0.0897197 -3.84702e-22)
(1.83689 0.079312 -1.10882e-21)
(1.81675 0.0676855 -8.18508e-21)
(1.78554 0.0587132 -4.72756e-22)
(1.75993 0.0471958 0)
(1.69678 0.0400609 -1.12564e-20)
(1.69335 0.0318685 0)
(1.54835 0.01682 -8.4938e-21)
(1.91395 0.10202 4.19784e-21)
(1.91628 0.0931385 0)
(1.91287 0.0829458 -3.59707e-22)
(1.89571 0.0745036 -6.85724e-22)
(1.88062 0.0643849 8.66867e-21)
(1.84072 0.0572065 0)
(1.82839 0.0487792 1.43542e-20)
(1.75368 0.0408313 1.1608e-20)
(1.76212 0.0375573 0)
(1.64478 0.02395 8.40653e-21)
(1.98112 0.0937039 -1.90648e-21)
(1.98029 0.0859959 7.6765e-21)
(1.97985 0.0771018 0)
(1.95813 0.069674 1.11773e-20)
(1.94937 0.0614957 5.92902e-22)
(1.90254 0.0542299 -1.11173e-21)
(1.89658 0.0486999 -1.37527e-20)
(1.8203 0.0396204 -4.52823e-22)
(1.82256 0.037744 -1.30433e-20)
(1.72523 0.0279394 0)
(2.04754 0.0864294 0)
(2.04419 0.079464 -7.49135e-21)
(2.0472 0.072153 -8.30236e-21)
(2.02308 0.0650704 1.1619e-21)
(2.01887 0.0588849 -7.40329e-22)
(1.97094 0.0511963 -5.70808e-22)
(1.96491 0.0472558 -1.69533e-20)
(1.89406 0.0386672 -9.50651e-22)
(1.88823 0.036298 -9.53957e-22)
(1.80045 0.0298198 1.23536e-20)
(2.11044 0.0797885 2.46758e-21)
(2.10606 0.0733415 5.07379e-22)
(2.11159 0.0675022 -1.33962e-21)
(2.08822 0.0607056 4.48274e-22)
(2.08629 0.0559307 -1.23192e-20)
(2.04211 0.0486167 0)
(2.03475 0.0451305 1.85379e-20)
(1.97071 0.0382229 -5.49741e-22)
(1.96165 0.0350388 2.97874e-20)
(1.87721 0.0303548 -2.57343e-20)
(2.16775 0.0734093 -2.47972e-21)
(2.16385 0.0675224 -4.5726e-21)
(2.17097 0.0627551 7.84294e-21)
(2.15051 0.0565863 -1.374e-20)
(2.15023 0.0525545 -1.56374e-21)
(2.11155 0.0463502 -1.15836e-20)
(2.10513 0.0428439 5.92892e-22)
(2.04687 0.0375506 -1.11984e-21)
(2.03912 0.0338916 -1.49022e-20)
(1.95742 0.0299878 1.33705e-20)
(2.21866 0.0669617 0)
(2.2161 0.0617873 9.88924e-21)
(2.22456 0.0577362 -1.05001e-21)
(2.20758 0.0524955 7.48323e-21)
(2.20955 0.0488769 -6.53259e-22)
(2.17611 0.0439271 2.31102e-20)
(2.173 0.0404556 -1.03251e-20)
(2.1201 0.0362318 0)
(2.11592 0.0326058 0)
(2.03964 0.0291712 0)
(2.26415 0.0602174 0)
(2.2631 0.0558291 -9.08213e-21)
(2.27294 0.0523347 -5.73565e-22)
(2.25902 0.0480735 7.6586e-21)
(2.26363 0.0448614 1.37537e-20)
(2.23473 0.0409536 -1.29835e-20)
(2.23558 0.0377937 1.24191e-20)
(2.18869 0.0343191 -6.65291e-22)
(2.18827 0.0311062 0)
(2.12058 0.0281681 8.35248e-21)
(2.30737 0.053034 3.27707e-22)
(2.30768 0.0493816 5.18352e-21)
(2.31859 0.046414 8.00102e-21)
(2.30703 0.0430144 -4.33668e-22)
(2.31358 0.0403083 9.60873e-22)
(2.28865 0.0372303 -1.41556e-20)
(2.29228 0.0346038 1.35841e-20)
(2.25205 0.0318449 -6.97457e-22)
(2.25418 0.0291694 0)
(2.19689 0.0268815 -1.70627e-20)
(2.35386 0.0454535 0)
(2.35522 0.0424187 5.15917e-21)
(2.36632 0.0399413 2.17462e-22)
(2.3564 0.0372499 0)
(2.36328 0.035062 0)
(2.34157 0.0327077 1.25537e-20)
(2.34581 0.0306276 -1.12697e-20)
(2.31172 0.028647 -6.6259e-22)
(2.31455 0.0264329 3.55276e-22)
(2.26707 0.0249766 9.00083e-21)
(2.41055 0.0373787 0)
(2.41245 0.0349609 -9.82978e-21)
(2.42266 0.0329377 -1.06107e-20)
(2.41361 0.0308741 1.5958e-21)
(2.41909 0.0291004 -1.02152e-21)
(2.39942 0.0274257 -8.43152e-22)
(2.40218 0.0257283 1.59323e-21)
(2.37225 0.0245447 1.02101e-20)
(2.37417 0.0226387 9.86499e-22)
(2.33338 0.0220918 -3.04614e-22)
(2.48354 0.0292063 0)
(2.48525 0.0274013 5.29715e-21)
(2.49373 0.0257376 -5.82432e-22)
(2.48465 0.0242335 5.77623e-22)
(2.48787 0.0226991 0)
(2.46876 0.0216179 0)
(2.46911 0.0200907 0)
(2.44058 0.0195819 -1.15939e-20)
(2.44094 0.0178467 1.0857e-20)
(2.40244 0.0180447 0)
(2.57437 0.021807 0)
(2.57505 0.0204779 3.38371e-21)
(2.58167 0.0190316 4.3485e-21)
(2.57193 0.0179435 5.6274e-21)
(2.57329 0.0165032 -1.06901e-21)
(2.5537 0.0158131 6.59248e-21)
(2.55232 0.0143271 -5.91236e-21)
(2.52321 0.0141859 0)
(2.5225 0.0125609 6.43192e-22)
(2.48317 0.0130754 -1.02964e-20)
(2.67738 0.0157365 -7.54979e-22)
(2.67664 0.014721 -2.74479e-21)
(2.68192 0.0134449 -5.62161e-21)
(2.67162 0.0125864 -3.95882e-21)
(2.67238 0.0112349 0)
(2.65263 0.0106664 -8.38814e-21)
(2.6511 0.00925056 8.48374e-21)
(2.62177 0.00908961 -8.04136e-22)
(2.62101 0.00761288 -5.37172e-21)
(2.58139 0.00794254 1.49619e-20)
(2.78076 0.0112429 7.58853e-22)
(2.77905 0.0103814 -2.13625e-21)
(2.78371 0.0093135 1.90675e-21)
(2.77394 0.00851287 -4.69353e-21)
(2.77523 0.00735112 0)
(2.75716 0.00669213 0)
(2.75668 0.00547073 8.36302e-22)
(2.72995 0.00503216 -7.89666e-21)
(2.7298 0.0037852 -4.86916e-21)
(2.69394 0.00364558 -5.03147e-21)
(2.87195 0.00799237 0)
(2.87046 0.0072156 3.50365e-21)
(2.87487 0.00642258 -1.27898e-21)
(2.86724 0.00562639 4.18435e-21)
(2.86932 0.00475732 1.12004e-21)
(2.85527 0.00397775 -9.38342e-22)
(2.85594 0.00304961 1.76514e-21)
(2.83525 0.00234254 5.46907e-21)
(2.83558 0.00137341 0)
(2.80812 0.000825915 0)
(2.94394 0.00529706 0)
(2.94365 0.00468328 1.434e-21)
(2.94766 0.00421602 -2.61537e-21)
(2.94319 0.00352626 0)
(2.94551 0.00298891 -2.1841e-21)
(2.93679 0.00223559 -9.49272e-22)
(2.93787 0.00161999 -2.65293e-21)
(2.92493 0.000850059 -7.73304e-22)
(2.92522 0.000157118 4.01995e-22)
(2.9082 -0.00054046 3.37633e-22)
(2.99537 0.00279849 0)
(2.99618 0.00248931 -1.44085e-21)
(2.99931 0.00235337 -1.29983e-21)
(2.99768 0.00194644 1.79114e-21)
(2.99951 0.00172646 1.04626e-21)
(2.99555 0.00121525 9.95275e-22)
(2.99627 0.000890445 4.43427e-21)
(2.99015 0.00030966 -3.23472e-21)
(2.98996 -0.000122511 7.52744e-22)
(2.98196 -0.000703081 0)
(3.02356 0.000643919 0)
(3.02481 0.000658074 7.0409e-22)
(3.02708 0.000742665 -6.72466e-22)
(3.02697 0.000696931 6.34889e-22)
(3.02819 0.000715261 0)
(3.02689 0.000586818 -1.00019e-21)
(3.02711 0.000518847 8.71341e-22)
(3.02484 0.000315938 7.75342e-22)
(3.02416 0.000159454 0)
(3.02123 -9.07285e-05 0)
(1.12455 0.226287 0)
(1.06302 0.246818 -5.47947e-20)
(1.01419 0.274849 0)
(0.974627 0.311335 -1.81481e-19)
(0.940089 0.355859 6.86672e-20)
(0.908119 0.410049 2.17696e-21)
(0.875345 0.474035 6.08444e-20)
(0.823919 0.53614 -6.81929e-21)
(0.697218 0.543123 0)
(0.385812 0.332178 6.42909e-20)
(1.21565 0.228892 1.00239e-19)
(1.15535 0.255438 5.47936e-20)
(1.10618 0.282146 -5.22549e-20)
(1.06505 0.317446 6.11215e-20)
(1.03016 0.361932 -5.27347e-20)
(1.00028 0.416154 7.17569e-21)
(0.971295 0.479691 -6.22521e-20)
(0.922372 0.540124 -1.24502e-19)
(0.787786 0.543656 -3.30604e-20)
(0.436537 0.327402 -9.41638e-20)
(1.30166 0.227572 -4.45173e-20)
(1.24547 0.256337 4.61336e-20)
(1.19718 0.28241 5.22533e-20)
(1.15469 0.316858 5.36291e-20)
(1.11918 0.360834 5.48824e-20)
(1.09101 0.414211 5.57574e-20)
(1.06526 0.475951 8.55835e-21)
(1.01766 0.532651 5.46354e-20)
(0.873343 0.530857 2.19558e-20)
(0.481411 0.312647 -2.34373e-20)
(1.38507 0.223721 8.89038e-20)
(1.33154 0.252951 -4.61317e-20)
(1.28402 0.278176 0)
(1.24087 0.311233 0)
(1.20517 0.353616 0)
(1.17848 0.404873 4.23429e-20)
(1.15503 0.463249 -3.66885e-20)
(1.10684 0.513912 0)
(0.950159 0.504904 1.59885e-20)
(0.517239 0.288304 -3.28121e-20)