/*--------------------------------*- C++ -*----------------------------------*\
| =========                 |                                                 |
| \\      /  F ield         | OpenFOAM: The Open Source CFD Toolbox           |
|  \\    /   O peration     | Version:  4.1                                   |
|   \\  /    A nd           | Web:      www.OpenFOAM.org                      |
|    \\/     M anipulation  |                                                 |
\*---------------------------------------------------------------------------*/
FoamFile
{
    version     2.0;
    format      ascii;
    class       surfaceScalarField;
    location    "13.2";
    object      phi;
}
// * * * * * * * * * * * * * * * * * * * * * * * * * * * * * * * * * * * * * //

dimensions      [0 3 -1 0 0 0 0];

internalField   nonuniform List<scalar> 
3890
(
0.000366471
0.00138595
-0.00175242
0.00229015
-0.000837756
-0.00108592
0.00630401
-0.00621681
0.00220295
0.0126114
-0.0136109
0.00730349
0.0209904
-0.0219237
0.0135447
0.0308822
-0.0301677
0.0202759
0.041592
-0.0376468
0.0269371
0.0525672
-0.0440112
0.033036
0.0632804
-0.0494121
0.038699
-0.0529707
0.0430186
0.0732325
0.000644406
0.000741546
0.0034584
-0.00365175
0.00892042
-0.0116788
0.0168876
-0.021578
0.026625
-0.0316612
0.0371649
-0.0407076
0.0476634
-0.0481454
0.0575847
-0.0539324
0.0664996
-0.058327
-0.0613696
0.0748985
0.00101355
-0.000272009
0.00487514
-0.00751333
0.0117801
-0.0185838
0.0209577
-0.0307556
0.0311201
-0.0418236
0.0411188
-0.0507063
0.0502654
-0.0572921
0.0583227
-0.0619897
0.0653877
-0.065392
-0.0678809
0.0718991
0.00146829
-0.00174029
0.00643817
-0.0124832
0.0144853
-0.026631
0.0240694
-0.0403397
0.0336072
-0.0513613
0.0421545
-0.0592536
0.0494459
-0.0645834
0.0556684
-0.0682122
0.0611725
-0.0708961
-0.0730801
0.0663716
0.00198928
-0.00372957
0.00796075
-0.0184547
0.0165567
-0.035227
0.025648
-0.049431
0.0337985
-0.0595118
0.0405494
-0.0660045
0.0460867
-0.0701207
0.0508405
-0.0729661
0.0552235
-0.0752791
-0.0774659
0.0596093
0.00253207
-0.00626164
0.00919859
-0.0251212
0.0176176
-0.043646
0.0255302
-0.0573436
0.0319862
-0.0659677
0.03703
-0.0710483
0.0411215
-0.0742122
0.0447429
-0.0765875
0.0482443
-0.0787804
-0.0810249
0.0518033
0.00302834
-0.00928998
0.00992754
-0.0320204
0.0175365
-0.0512549
0.0239257
-0.0637327
0.0287105
-0.0707526
0.0322833
-0.0746211
0.0351951
-0.077124
0.0378689
-0.0792613
0.040538
-0.0814495
-0.0837922
0.0433052
0.00339623
-0.0126862
0.0100211
-0.0386452
0.0164128
-0.0576467
0.0212063
-0.0685262
0.0244822
-0.0740285
0.0268082
-0.0769471
0.0287101
-0.0790259
0.0305084
-0.0810596
0.0323445
-0.0832857
-0.0857037
0.034256
0.00356463
-0.0162508
0.00947515
-0.0445558
0.0144692
-0.0626407
0.0177456
-0.0718026
0.0196994
-0.0759823
0.0209456
-0.0781934
0.0219281
-0.0800084
0.0228683
-0.0819997
0.0238365
-0.0842539
-0.0867152
0.024848
0.00349775
-0.0197486
0.00840223
-0.0494602
0.0119626
-0.0662011
0.0138582
-0.0736982
0.0146547
-0.0767788
0.0149328
-0.0784716
0.0150382
-0.0801138
0.0151131
-0.0820746
0.0151886
-0.0843294
0.0152703
-0.0867968
-0.0004456
0.0004456
-0.00133512
0.000889524
-0.00243605
0.00110093
-0.0036175
0.00118145
-0.00480454
0.00118703
-0.00595775
0.00115322
-0.00706262
0.00110487
-0.00812335
0.00106073
-0.00916124
0.00103788
0.00105772
-0.010219
-0.000412153
0.000857753
-0.00123098
0.00170835
-0.00223498
0.00210493
-0.00329203
0.0022385
-0.00432317
0.00221818
-0.00528257
0.00211262
-0.00614764
0.00196994
-0.00691528
0.00182837
-0.00759993
0.00172254
0.00170457
-0.00824678
-0.00035228
0.00121003
-0.00104552
0.00240159
-0.00187025
0.00292966
-0.00269602
0.00306427
-0.00343864
0.0029608
-0.00404142
0.00271539
-0.00446654
0.00239506
-0.00469614
0.00205797
-0.0047349
0.0017613
0.00156192
-0.00459226
-0.000280391
0.00149042
-0.000811084
0.00293228
-0.00139605
0.00351462
-0.00190694
0.00357516
-0.00225486
0.00330871
-0.00237209
0.00283263
-0.00220181
0.00222477
-0.00169593
0.00155209
-0.000830816
0.00089618
0.000433032
0.000298075
-0.000209329
0.00169975
-0.00055793
0.00328088
-0.000856411
0.00381311
-0.000975578
0.00369433
-0.000820283
0.00315342
-0.000312126
0.00232447
0.000620826
0.00129182
0.00204659
0.000126331
0.00402948
-0.00108672
-0.00216325
0.00662576
-0.00014663
0.00184638
-0.000299483
0.00343373
-0.000259235
0.00377286
0.000115056
0.00332004
0.000935728
0.00233274
0.00229603
0.000964168
0.00427873
-0.000690882
0.00695666
-0.00255159
0.0103966
-0.00452666
-0.00660338
0.0148367
-9.17539e-05
0.00193814
-2.08194e-05
0.0033628
0.00043605
0.00331599
0.00146186
0.00229423
0.00320075
0.000593861
0.0057682
-0.00160329
0.00924543
-0.00416811
0.0136753
-0.00698147
0.0190368
-0.00988818
-0.0133165
0.0257499
-3.50861e-05
0.00197322
0.000306832
0.00302088
0.001317
0.00230582
0.00322676
0.000384466
0.00622334
-0.00240272
0.0104276
-0.00580752
0.015877
-0.00961758
0.0225124
-0.0136168
0.0302011
-0.017577
-0.0223498
0.0392345
4.80174e-05
0.00192521
0.000757443
0.00231146
0.00251273
0.000550529
0.00560681
-0.00270961
0.0102301
-0.00702602
0.0164307
-0.0120081
0.024106
-0.0172929
0.0329868
-0.0224976
0.0428905
-0.0274807
-0.0327089
0.0532496
0.000172782
0.00139832
0.00415179
0.00874567
0.0152644
0.0235322
0.0331764
0.0437147
0.054933
0.0652427
-0.0108051
0.00058614
-0.0113787
0.000573566
-0.0119228
0.000544137
-0.0124358
0.000512992
-0.0129175
0.000481677
-0.0133674
0.000449931
-0.013785
0.000417557
-0.0141693
0.00038435
-0.0145196
0.000350336
-0.0148355
0.000315881
-0.0151172
0.000281643
-0.0153658
0.000248592
-0.0155838
0.000217995
-0.0157751
0.000191381
-0.0159455
0.00017037
-0.0161018
0.000156269
-0.0162515
0.000149687
-0.0164024
0.000150971
-0.0165627
0.000160291
0.000171231
-0.00871478
0.00105414
-0.00918235
0.00104113
-0.00963304
0.000994833
-0.0100677
0.000947653
-0.0104861
0.000900094
-0.0108876
0.000851378
-0.0112711
0.000801051
-0.0116353
0.000748631
-0.0119787
0.00069364
-0.0122995
0.000636755
-0.0125969
0.000579006
-0.0128703
0.000521985
-0.0131202
0.000467897
-0.0133483
0.00041953
-0.013558
0.00038006
-0.0137542
0.000352428
-0.0139429
0.000338441
-0.0141309
0.000338964
-0.0143254
0.00035475
0.000375853
-0.00485491
0.0013168
-0.00511365
0.00129986
-0.00538067
0.00126185
-0.00565436
0.00122135
-0.00593433
0.00118007
-0.00622061
0.00113765
-0.00651283
0.00109328
-0.00681038
0.00104617
-0.00710936
0.000992625
-0.00740789
0.000935278
-0.00770371
0.000874829
-0.00799453
0.000812807
-0.00827828
0.000751647
-0.00855345
0.000694698
-0.00881953
0.000646146
-0.00907756
0.000610462
-0.00933015
0.000591027
-0.00958077
0.000589587
-0.00983488
0.000608857
0.00064434
0.000403646
0.00121123
0.00038564
0.00131787
0.000351824
0.00129567
0.000304655
0.00126852
0.000230227
0.00125449
0.000125459
0.00124242
-5.9327e-06
0.00122467
-0.000160038
0.00120028
-0.000340833
0.00117342
-0.000546895
0.00114134
-0.00077619
0.00110412
-0.00102614
0.00106275
-0.00129369
0.0010192
-0.00157543
0.00097644
-0.00186784
0.000938552
-0.00216793
0.000910559
-0.00247414
0.000897234
-0.0027859
0.000901349
-0.00310225
0.000925199
0.000967718
0.00694419
0.000892796
0.00718203
0.00108004
0.00737803
0.00109966
0.00755613
0.00109041
0.00770104
0.00110959
0.00780682
0.00113664
0.00787358
0.00115791
0.00790071
0.00117315
0.00788949
0.00118464
0.0078388
0.00119202
0.0077482
0.00119472
0.00761792
0.00119303
0.00744896
0.00118816
0.00724318
0.00118222
0.00700348
0.00117825
0.00673353
0.00118051
0.00643704
0.00119372
0.00611666
0.00122173
0.00577695
0.00126491
0.00132992
0.0152806
0.00044898
0.0156318
0.000728764
0.0159548
0.000776698
0.0162666
0.000778599
0.0165542
0.000822021
0.0168086
0.000882202
0.0170316
0.00093488
0.0172231
0.000981659
0.0173804
0.00102733
0.0175002
0.00107229
0.0175793
0.00111558
0.0176152
0.00115717
0.0176056
0.00119774
0.0175491
0.00123869
0.0174456
0.0012818
0.0172958
0.00133029
0.0171023
0.00138722
0.0168656
0.00145845
0.0165897
0.00154075
0.00165713
0.0260768
0.000122115
0.0263691
0.000436408
0.0266854
0.000460417
0.026999
0.000465048
0.0273038
0.00051718
0.0275997
0.000586315
0.0278871
0.000647504
0.0281632
0.000705572
0.028422
0.000768481
0.0286582
0.000836056
0.028867
0.000906781
0.0290436
0.000980607
0.0291836
0.00105772
0.0292831
0.00113917
0.0293396
0.00122537
0.0293505
0.00131936
0.029317
0.00142073
0.0292359
0.00153949
0.029114
0.00166266
0.00184661
0.0392751
8.14714e-05
0.0394251
0.00028646
0.0396371
0.000248416
0.0398908
0.000211287
0.0401616
0.00024647
0.0404493
0.000298595
0.0407524
0.000344411
0.0410605
0.000397445
0.0413659
0.000463086
0.0416629
0.000539068
0.0419462
0.000623469
0.0422105
0.000716304
0.0424516
0.000816631
0.0426653
0.000925435
0.0428495
0.00104115
0.0430004
0.00116846
0.0431208
0.00130035
0.0432039
0.00145637
0.043268
0.00159858
0.00184043
0.0531832
0.000147919
0.0533849
8.47313e-05
0.053739
-0.00010567
0.0540752
-0.000124879
0.0544145
-9.28117e-05
0.0547773
-6.428e-05
0.0551501
-2.83117e-05
0.0555227
2.47572e-05
0.0558916
9.42307e-05
0.0562541
0.000176573
0.0566072
0.000270356
0.0569477
0.000375778
0.0572737
0.000490668
0.0575832
0.000615921
0.057877
0.000747381
0.0581515
0.000893877
0.0584145
0.00103738
0.0586567
0.00121418
0.0589045
0.00135083
0.00161568
0.0657055
-0.000314857
0.066404
-0.000613843
0.067024
-0.000725596
0.0676102
-0.000711125
0.0681925
-0.000675117
0.0687589
-0.000630685
0.0693043
-0.000573687
0.0698319
-0.000502811
0.0703451
-0.000418969
0.0708463
-0.000324692
0.0713379
-0.000221238
0.0718194
-0.000105668
0.0722956
1.44148e-05
0.0727695
0.000142034
0.0732423
0.00027457
0.0737111
0.00042513
0.0741862
0.000562207
0.0746601
0.000740341
0.0751556
0.000855355
0.00109605
0.090989
0.000467195
-0.091771
0.0900851
0.000290056
0.089224
0.000135457
0.0884805
3.23564e-05
0.0878333
-2.79227e-05
0.0872519
-4.92072e-05
0.0867247
-4.65693e-05
0.0862455
-2.35787e-05
0.0858029
2.36146e-05
0.0853927
8.55488e-05
0.0850115
0.000159928
0.0846573
0.000248516
0.0843266
0.000345205
0.0840136
0.000454942
0.0837228
0.000565451
0.0834519
0.00069604
0.0832055
0.000808603
0.0829829
0.000962916
0.0827878
0.00105042
0.00124038
0.0997761
0.000762094
-0.100071
0.0993904
0.000675694
0.0989485
0.00057743
0.0985094
0.000471463
0.0980906
0.000390816
0.0976956
0.000345843
0.0973194
0.000329564
0.0969602
0.000335652
0.0966222
0.000361619
0.0963028
0.000404995
0.0960006
0.000462083
0.0957148
0.00053435
0.0954452
0.000614758
0.0951907
0.000709461
0.0949526
0.000803537
0.094731
0.000917687
0.0945267
0.00101285
0.0943436
0.00114607
0.0941766
0.00121739
0.00137633
0.106322
0.00106227
-0.106623
0.106081
0.000916661
0.105856
0.000803192
0.105634
0.000693525
0.10542
0.000604823
0.105217
0.000548438
0.105025
0.000521991
0.104841
0.000519419
0.104666
0.000535927
0.104501
0.000570088
0.104346
0.000617739
0.104199
0.00068062
0.104063
0.000750884
0.103937
0.000836053
0.103821
0.000919319
0.103716
0.00102276
0.103623
0.00110614
0.103542
0.00122631
0.103472
0.00128782
0.00143115
0.111809
0.00128164
-0.112028
0.111658
0.00106741
0.111541
0.000919613
0.111433
0.00080202
0.11133
0.000707458
0.111238
0.000640962
0.111157
0.000602945
0.111086
0.000590027
0.111025
0.000596757
0.110974
0.000621775
0.110932
0.000659926
0.110898
0.000713942
0.110875
0.000774516
0.110859
0.000851195
0.110854
0.000924301
0.110858
0.0010192
0.110872
0.00109199
0.110895
0.00120377
0.110926
0.00125667
0.00139142
0.116879
0.00138032
-0.116978
0.116804
0.00114268
0.11675
0.000972773
0.116707
0.000845664
0.116668
0.000745934
0.116637
0.000671807
0.116617
0.000623417
0.116607
0.000599928
0.116608
0.000596132
0.116618
0.00061133
0.116639
0.000639008
0.11667
0.000683322
0.116711
0.00073301
0.116762
0.00080025
0.116824
0.000862128
0.116896
0.000947982
0.116978
0.00100976
0.117068
0.00111318
0.117168
0.00115749
0.00128412
0.121984
0.0014077
-0.122011
0.121953
0.00117365
0.121932
0.000993989
0.121919
0.000858044
0.121913
0.000752698
0.121912
0.000672805
0.121919
0.000616318
0.121935
0.000583585
0.121962
0.000569726
0.121998
0.0005752
0.122044
0.000592295
0.122101
0.000626527
0.122169
0.000664911
0.122248
0.000721861
0.122338
0.000772125
0.122438
0.00084775
0.122549
0.000898545
0.12267
0.000991868
0.1228
0.00102811
0.00114397
0.127281
0.00141009
-0.127284
0.12727
0.00118496
0.127262
0.00100252
0.127259
0.000860557
0.127262
0.000750112
0.127269
0.000665532
0.127283
0.000602725
0.127304
0.000562188
0.127334
0.000539166
0.127374
0.000535275
0.127425
0.000542174
0.127485
0.000566273
0.127556
0.000593664
0.127638
0.000639825
0.127731
0.00067887
0.127836
0.000743254
0.127951
0.000783749
0.128077
0.000865253
0.128211
0.000894293
0.000996693
0.132681
0.00140134
-0.132672
0.13268
0.00118595
0.132677
0.00100526
0.132677
0.000860831
0.13268
0.000746887
0.132687
0.000658599
0.132699
0.000590789
0.132717
0.000543694
0.132744
0.000512597
0.132779
0.000499879
0.132824
0.000497252
0.132879
0.000511378
0.132944
0.000528451
0.133021
0.00056365
0.133107
0.000592247
0.133206
0.000644807
0.133314
0.000675937
0.133434
0.000744543
0.133561
0.000767278
0.000854606
0.137964
0.00137703
-0.137939
0.137976
0.00117321
0.137984
0.000997472
0.137991
0.000853683
0.138
0.000738362
0.138011
0.000647684
0.138025
0.000576175
0.138045
0.000523776
0.138072
0.000485899
0.138107
0.000465222
0.13815
0.000454044
0.138203
0.00045871
0.138265
0.000466396
0.138337
0.000490913
0.13842
0.000510033
0.138514
0.000550795
0.138616
0.000573553
0.138731
0.000629027
0.138853
0.000646264
0.000718174
0.142909
0.00132364
-0.142856
0.14295
0.00113265
0.142983
0.00096407
0.143013
0.000823706
0.143042
0.000709502
0.143071
0.000618322
0.143103
0.000544788
0.143138
0.000488674
0.143178
0.000445672
0.143225
0.00041844
0.143279
0.000400123
0.143341
0.000396441
0.143411
0.000396024
0.143491
0.000410818
0.14358
0.00042168
0.143679
0.000451479
0.143786
0.000466954
0.143905
0.00051007
0.144028
0.000522574
0.000579993
0.147427
0.00122026
-0.147324
0.147517
0.00104314
0.147597
0.000884131
0.14767
0.000750301
0.14774
0.000640195
0.147807
0.000551091
0.147874
0.000477844
0.147942
0.000420277
0.148013
0.000374377
0.148089
0.00034276
0.14817
0.000319323
0.148257
0.000309248
0.148351
0.000302527
0.148452
0.000309451
0.14856
0.000313659
0.148677
0.000334328
0.1488
0.000343822
0.148934
0.000376487
0.149071
0.000385069
0.0004302
0.151681
0.00104684
-0.151508
0.151838
0.000886256
0.151982
0.000740422
0.152115
0.000616887
0.152241
0.000514336
0.152362
0.000430539
0.152479
0.000360583
0.152595
0.000304599
0.15271
0.000258686
0.152828
0.000225658
0.152947
0.000199769
0.15307
0.000186122
0.153197
0.00017546
0.153329
0.000177259
0.153466
0.000176845
0.153609
0.000191149
0.153757
0.000196237
0.153912
0.000221367
0.15407
0.000226925
0.000263022
0.156126
0.000800989
-0.15588
0.156351
0.000661232
0.156558
0.000533069
0.156751
0.000423834
0.156933
0.000332327
0.157107
0.000257239
0.157273
0.000193873
0.157435
0.000142888
0.157594
0.00010012
0.15775
6.90302e-05
0.157907
4.36474e-05
0.158063
2.9649e-05
0.158221
1.76698e-05
0.158381
1.74866e-05
0.158543
1.46768e-05
0.158708
2.5775e-05
0.158876
2.81428e-05
0.159049
4.90435e-05
0.159223
5.25172e-05
8.31541e-05
0.161365
0.000512395
-0.161076
0.161629
0.0003972
0.161872
0.000290364
0.162097
0.000198567
0.162309
0.000120572
0.162509
5.6775e-05
0.1627
2.61218e-06
0.162884
-4.06127e-05
0.163062
-7.76851e-05
0.163235
-0.000104076
0.163405
-0.000126516
0.163573
-0.000138222
0.16374
-0.000149335
0.163906
-0.000148918
0.164073
-0.000152253
0.164241
-0.000141798
0.164409
-0.000140714
0.16458
-0.000121424
0.164752
-0.000119213
-9.12761e-05
0.167792
0.000238965
-0.167518
0.16804
0.000148891
0.168266
6.40851e-05
0.168474
-9.07206e-06
0.168668
-7.31142e-05
0.168849
-0.000124693
0.169021
-0.000168879
0.169183
-0.000203396
0.169339
-0.0002335
0.169489
-0.00025408
0.169635
-0.000272427
0.169778
-0.000280681
0.169918
-0.000289819
0.170057
-0.000287701
0.170195
-0.000290555
0.170333
-0.000279704
0.170471
-0.00027907
0.17061
-0.000260412
0.17075
-0.000258925
-0.000232691
0.175213
3.72558e-05
-0.175011
0.175392
-3.05178e-05
0.175551
-9.50185e-05
0.175694
-0.000151902
0.175823
-0.000202036
0.175941
-0.000242421
0.176049
-0.000277226
0.176149
-0.00030365
0.176243
-0.000327154
0.176331
-0.000342349
0.176415
-0.0003567
0.176497
-0.000361905
0.176576
-0.000369025
0.176654
-0.000365649
0.176731
-0.000367868
0.176808
-0.000357171
0.176886
-0.000356751
0.176965
-0.000339436
0.177045
-0.000338427
-0.000314718
0.182801
-7.02247e-05
-0.182693
0.182889
-0.000119364
0.182961
-0.000166319
0.183017
-0.000208323
0.183061
-0.000245822
0.183095
-0.000275979
0.18312
-0.000302196
0.183137
-0.000321575
0.183149
-0.000339153
0.183157
-0.000349937
0.183161
-0.00036072
0.183163
-0.000363868
0.183163
-0.000369255
0.183163
-0.000365728
0.183163
-0.000367459
0.183164
-0.000358191
0.183165
-0.000357984
0.183169
-0.000343503
0.183174
-0.000342869
-0.000323371
0.189502
-9.51922e-05
-0.189477
0.189511
-0.000128259
0.189504
-0.000159453
0.189483
-0.000187115
0.189449
-0.000212174
0.189406
-0.000232318
0.189354
-0.000249985
0.189295
-0.000262797
0.18923
-0.000274596
0.189162
-0.000281563
0.18909
-0.000288838
0.189017
-0.000290633
0.188942
-0.000294303
0.188868
-0.00029152
0.188793
-0.000292739
0.188721
-0.000286003
0.188649
-0.000285932
0.188581
-0.000275591
0.188513
-0.000275221
-0.000261436
0.194466
-6.08228e-05
-0.1945
0.194417
-7.97326e-05
0.194353
-9.57474e-05
0.194276
-0.000109321
0.194185
-0.000121689
0.194084
-0.000131693
0.193975
-0.000140528
0.193859
-0.000146893
0.193737
-0.000152791
0.193612
-0.000156227
0.193483
-0.000159853
0.193353
-0.000160686
0.193221
-0.000162479
0.193091
-0.000161009
0.19296
-0.000161545
0.192832
-0.000158105
0.192704
-0.000157956
0.192581
-0.000152737
0.192458
-0.000152389
-0.000145345
0.197114
-0.197174
0.197034
0.196938
0.196829
0.196707
0.196575
0.196435
0.196288
0.196135
0.195979
0.195819
0.195658
0.195496
0.195335
0.195173
0.195015
0.194857
0.194705
0.194552
0.0905324
0.0142218
-0.0894839
0.0915927
0.0237877
0.0926833
0.0331654
0.093762
0.0422266
0.0948563
0.0507089
0.0958633
0.0586024
0.0965598
0.065675
0.097061
0.0713979
0.0947092
0.0772502
0.0761707
0.0935169
0.0132906
-0.0925857
0.094507
0.0227976
0.0955858
0.0320867
0.0967272
0.0410851
0.0978715
0.0495647
0.0991685
0.0573054
0.100051
0.0647928
0.101434
0.0700149
0.101423
0.077261
0.0775226
0.0967582
0.0124666
-0.0959342
0.0977017
0.0218542
0.0987454
0.0310429
0.0999508
0.0398797
0.101115
0.0484009
0.102594
0.0558259
0.103768
0.063619
0.10531
0.0684726
0.10666
0.0759111
0.0775602
0.100105
0.0117188
-0.0993577
0.101047
0.0209123
0.102101
0.0299889
0.103392
0.0385891
0.104666
0.0471273
0.106223
0.0542684
0.107726
0.0621164
0.109206
0.0669919
0.111048
0.0740691
0.0765805
0.103422
0.0110133
-0.102716
0.104395
0.0199396
0.105531
0.0288525
0.10693
0.0371901
0.108412
0.0456449
0.110045
0.0526359
0.111825
0.0603367
0.113401
0.0654154
0.115395
0.0720753
0.074998
0.106578
0.0103162
-0.105881
0.107601
0.0189162
0.108875
0.0275785
0.110414
0.035651
0.112156
0.0439029
0.113973
0.0508198
0.116026
0.0582837
0.117912
0.0635286
0.120068
0.06992
0.0730542
0.109457
0.00959933
-0.108741
0.11055
0.0178238
0.111986
0.0261422
0.113708
0.0339294
0.115729
0.0418817
0.117852
0.0486964
0.12023
0.0559058
0.122538
0.0612206
0.124998
0.0674599
0.0707687
0.111998
0.00884495
-0.111244
0.113176
0.0166464
0.114775
0.024543
0.11671
0.0319947
0.119013
0.0395787
0.121501
0.0462077
0.124259
0.0531485
0.127028
0.0584517
0.129944
0.0645431
0.0680409
0.114236
0.00804505
-0.113436
0.115504
0.0153787
0.117249
0.022798
0.119391
0.029852
0.121957
0.0370125
0.124796
0.0433691
0.127954
0.0499903
0.131195
0.0552114
0.134658
0.0610791
0.06476
0.116337
0.00720054
-0.115492
0.117682
0.014033
0.119541
0.0209392
0.121849
0.0275439
0.124631
0.0342304
0.127756
0.0402444
0.131281
0.0464652
0.134962
0.0515308
0.138968
0.0570729
0.0608723
0.118599
0.00632434
-0.117723
0.119996
0.012637
0.121925
0.01901
0.124334
0.0251344
0.127261
0.0313034
0.130583
0.0369228
0.134383
0.0426653
0.138418
0.0474954
0.142868
0.0526235
0.0564158
0.121404
0.00543033
-0.12051
0.122812
0.0112287
0.124766
0.0170562
0.127217
0.0226832
0.130215
0.0283062
0.133645
0.0334925
0.1376
0.03871
0.141872
0.043223
0.14661
0.0478856
0.0515182
0.125073
0.00456749
-0.12421
0.126463
0.00983936
0.128409
0.0151095
0.13087
0.020222
0.133891
0.0252851
0.137379
0.0300052
0.141403
0.0346862
0.145814
0.0388116
0.150703
0.0429966
0.046341
0.129699
0.00377227
-0.128904
0.131054
0.00848484
0.13299
0.013173
0.135474
0.0177378
0.13853
0.0222293
0.14209
0.0264455
0.146183
0.0305933
0.150714
0.0342805
0.155717
0.0379937
0.0409815
0.135001
0.00306287
-0.134291
0.136331
0.0071546
0.138288
0.0112163
0.140849
0.0151771
0.144009
0.0190686
0.147722
0.0227324
0.151982
0.0263342
0.156715
0.0295467
0.16193
0.0327786
0.0353936
0.140374
0.00242369
-0.139734
0.141713
0.00581507
0.143743
0.00918686
0.146448
0.0124721
0.149806
0.0157101
0.153777
0.0187614
0.158341
0.0217704
0.163419
0.0244682
0.169023
0.0271747
0.029406
0.145162
0.00181262
-0.144551
0.14655
0.00442766
0.148698
0.00703879
0.151593
0.00957721
0.155211
0.0120917
0.159508
0.0144641
0.16447
0.0168091
0.170004
0.0189335
0.176133
0.0210465
0.0228454
0.14898
0.00119827
-0.148365
0.15043
0.002978
0.152705
0.0047637
0.155786
0.00649545
0.15966
0.00821765
0.164278
0.00984651
0.169632
0.0114554
0.175632
0.0129327
0.182295
0.0143839
0.0156631
0.151718
0.000590266
-0.15111
0.153205
0.00149114
0.155569
0.00239994
0.158785
0.00327915
0.162848
0.00415544
0.167708
0.00498596
0.173359
0.00580486
0.179727
0.00656474
0.186807
0.00730344
0.00797032
0.153219
-0.152629
0.154711
0.157111
0.16039
0.164545
0.169531
0.175336
0.181901
0.189204
0.0425065
0.0517095
-0.0455988
-0.0486172
0.0364541
0.0503363
-0.0442838
0.0308187
0.0494371
-0.0438017
0.0255048
0.0490999
-0.043786
0.0203946
0.0492363
-0.0441261
0.0154193
0.0498279
-0.0448526
0.0105604
0.0507357
-0.0458769
0.00593386
0.0508371
-0.0462106
0.00201693
0.0460621
-0.0421452
0.0264979
-0.0244809
0.0407555
0.0577356
-0.0467816
0.0348705
0.0562213
0.0292816
0.055026
0.0240264
0.0543551
0.0190289
0.0542338
0.0142073
0.0546496
0.00954485
0.0553982
0.00519065
0.0551913
0.00165278
0.0496
0.0281507
0.0380918
0.0634255
-0.0437816
0.0324932
0.0618199
0.0271051
0.0604141
0.0220106
0.0594496
0.0171913
0.0590531
0.0125885
0.0592524
0.00820314
0.0597835
0.00422506
0.0591694
0.00118664
0.0526384
0.0293373
0.0343399
0.0687378
-0.0396522
0.0291554
0.0670043
0.0241339
0.0654356
0.019353
0.0642304
0.0148292
0.0635768
0.0105388
0.0635428
0.00652389
0.0637984
0.00303633
0.062657
0.000618354
0.0550564
0.0299556
0.0295721
0.0735915
-0.0344258
0.0248798
0.0716967
0.0203461
0.0699692
0.0160167
0.0685599
0.0119151
0.0676784
0.00804709
0.0674109
0.0044995
0.067346
0.00161859
0.0655379
-6.03977e-05
0.0567354
0.0298953
0.0238147
0.0778523
-0.0280756
0.0197252
0.0757862
0.0157899
0.0739045
0.0120265
0.0723234
0.00845783
0.0712471
0.00512167
0.070747
0.00215516
0.0703125
-9.55144e-05
0.0677886
-0.000722961
0.0573628
0.0291723
0.0171854
0.0813907
-0.0207237
0.0137993
0.0791723
0.0105517
0.0771521
0.0074481
0.075427
0.00450758
0.0741876
0.00181089
0.0734437
-0.00042479
0.0725482
-0.00166865
0.0690324
-0.00141415
0.0571083
0.0277581
0.00980293
0.0841006
-0.0125129
0.00720798
0.0817672
0.00472955
0.0796306
0.00236876
0.0777877
0.000150075
0.0764063
-0.00182072
0.0754145
-0.00320541
0.0739329
-0.00345516
0.0692822
-0.00209522
0.0557484
0.0256629
0.00181467
0.0859531
-0.0036671
8.27037e-05
0.0834992
-0.00156164
0.0812749
-0.00313927
0.0793654
-0.00459085
0.0778579
-0.00572839
0.076552
-0.00615606
0.0743605
-0.00525514
0.0683813
-0.00271336
0.0532066
0.0229496
-0.00657101
0.00572724
-0.00740127
-0.008201
-0.00894939
-0.00956312
-0.00978986
-0.00912751
-0.0069473
-0.00320097
0.0321632
0.00304411
-0.0352073
0.0289978
0.00316537
0.0256918
0.00330601
0.0222245
0.00346731
0.0185677
0.00365679
0.014688
0.00387974
0.0105672
0.00412082
0.00629307
0.00427408
0.0023203
0.00397277
0.0023203
0.0327553
0.00622049
-0.0359317
0.0294731
0.00644757
0.0260654
0.00671371
0.0225112
0.00702149
0.0187818
0.00738615
0.0148426
0.00781901
0.010672
0.00829142
0.00635435
0.00859171
0.0023501
0.00797701
0.0046704
0.0338783
0.0096486
-0.0373064
0.0303734
0.00995241
0.0267716
0.0103156
0.0230511
0.010742
0.0191823
0.0112549
0.0151287
0.0118726
0.0108657
0.0125544
0.0064716
0.0129859
0.00239745
0.0120512
0.00706785
0.0354143
0.013421
-0.0391868
0.0316034
0.0137633
0.0277335
0.0141856
0.023783
0.0146924
0.0197215
0.0153164
0.0155104
0.0160837
0.0111206
0.0169442
0.0066224
0.0174841
0.00245859
0.016215
0.00952644
0.0372014
0.0175957
-0.041376
0.0330298
0.0179349
0.0288423
0.018373
0.0246195
0.0189152
0.0203305
0.0196054
0.0159341
0.0204801
0.0113967
0.0214816
0.00678068
0.0221001
0.00252059
0.0204751
0.012047
0.0390559
0.0221898
-0.0436499
0.0344993
0.0224916
0.0299702
0.022902
0.0254553
0.0234302
0.020924
0.0241368
0.0163327
0.0250713
0.0116438
0.0261705
0.00691299
0.0268309
0.00256783
0.0248202
0.0146149
0.0407655
0.0272085
-0.0457842
0.0358236
0.0274335
0.0309635
0.0277621
0.0261725
0.0282212
0.0214126
0.0288967
0.0166375
0.0298464
0.01181
0.030998
0.0069841
0.0316569
0.00258379
0.0292205
0.0171987
0.0422103
0.0326358
-0.0476377
0.0368724
0.0327714
0.0316941
0.0329405
0.0266528
0.0332624
0.0216944
0.0338551
0.0167683
0.0347725
0.011837
0.0359293
0.00695609
0.0365377
0.00255116
0.0336255
0.0197498
0.0429794
0.0385766
-0.0489201
0.037328
0.0384227
0.0319671
0.0383014
0.0267658
0.0384637
0.0216691
0.0389518
0.0166459
0.0397956
0.0116656
0.0409096
0.00679067
0.0414127
0.00245303
0.0379631
0.0222028
0.0431403
-0.0501625
0.0372792
0.0317789
0.0264566
0.0212823
0.0162253
0.011258
0.00646015
0.0022781
0.0387937
-0.000101529
0.0388945
-0.000100786
0.038992
-9.75422e-05
0.0390821
-9.01228e-05
0.0391613
-7.91943e-05
0.0392262
-6.48905e-05
0.039273
-4.67866e-05
0.0392971
-2.41239e-05
0.0392931
4.04494e-06
0.0392591
3.39327e-05
0.0391884
7.07241e-05
0.0390738
0.000114632
0.0389071
0.000166662
0.0386789
0.00022818
0.038378
0.0003009
0.0379911
0.000386918
0.0375022
0.000488904
0.0368923
0.00060995
0.0361378
0.000754437
0.000930541
0.0396542
-0.000204329
0.0397545
-0.000201018
0.03985
-0.000193056
0.0399376
-0.000177716
0.0400141
-0.000155715
0.0400761
-0.000126891
0.0401196
-9.03335e-05
0.0401401
-4.45394e-05
0.0401326
1.15271e-05
0.0400942
7.22654e-05
0.0400183
0.000146647
0.0398976
0.000235362
0.0397238
0.000340451
0.0394873
0.000464653
0.0391768
0.000611415
0.0387788
0.000784911
0.0382772
0.000990535
0.0376528
0.00123433
0.0368821
0.00152513
0.00188099
0.0413466
-0.000298795
0.0414391
-0.000293504
0.0415272
-0.0002812
0.0416073
-0.000257813
0.041676
-0.000224341
0.0417296
-0.000180486
0.041764
-0.000124806
0.0417743
-5.48525e-05
0.0417572
2.86181e-05
0.0417076
0.000121899
0.0416189
0.000235382
0.0414836
0.000370599
0.0412934
0.000530666
0.0410384
0.000719729
0.0407068
0.000942993
0.040285
0.00120669
0.0397565
0.00151903
0.039102
0.00188879
0.0382982
0.00232895
0.00287281
0.0438103
-0.000374966
0.0438844
-0.000367553
0.0439543
-0.000351091
0.0440161
-0.000319652
0.0440661
-0.000274294
0.0441003
-0.000214697
0.0441144
-0.000138925
0.0441032
-4.36473e-05
0.0440656
6.61782e-05
0.043993
0.000194538
0.0438791
0.000349294
0.0437164
0.000533305
0.0434961
0.00075091
0.0432081
0.00100774
0.0428403
0.00131079
0.0423786
0.0016684
0.041806
0.00209162
0.0411026
0.00259222
0.0402464
0.00318517
0.0039324
0.0469633
-0.000415848
0.0470017
-0.000405987
0.0470357
-0.000385104
0.0470615
-0.000345444
0.047075
-0.000287835
0.0470722
-0.000211883
0.0470486
-0.000115262
0.0469965
8.37779e-06
0.0469202
0.000142484
0.046806
0.000308797
0.046648
0.000507276
0.0464387
0.000742629
0.046169
0.0010206
0.0458282
0.00134855
0.0454039
0.00173504
0.0448813
0.00219098
0.0442434
0.0027296
0.0434678
0.00336775
0.0425367
0.00411632
0.00509304
0.0507099
-0.000397013
0.0506879
-0.000383998
0.0506603
-0.000357541
0.0506238
-0.000308944
0.0505744
-0.000238433
0.0505076
-0.00014506
0.0504161
-2.37544e-05
0.0503081
0.000116353
0.0501639
0.000286674
0.049981
0.000491727
0.0497526
0.000735717
0.0494703
0.00102494
0.049125
0.00136589
0.0487051
0.00176841
0.0481984
0.00224178
0.047588
0.00280137
0.046858
0.0034596
0.0459809
0.00424477
0.044949
0.00514823
0.00639213
0.0549521
-0.000285477
0.0548362
-0.000268042
0.0547126
-0.000234
0.0545795
-0.000175807
0.0544325
-9.14423e-05
0.0542657
2.17511e-05
0.0540845
0.00015739
0.053874
0.000326885
0.0536292
0.000531488
0.0533442
0.000776751
0.0530122
0.00106774
0.0526239
0.00141315
0.0521709
0.00181893
0.0516397
0.0022996
0.05102
0.00286148
0.0502908
0.00353055
0.049441
0.00430948
0.048426
0.0052597
0.0472489
0.00632538
0.00785678
0.0596011
-3.64093e-05
0.059347
-1.39755e-05
0.059083
3.00158e-05
0.0588094
9.78548e-05
0.0585244
0.000193542
0.0582256
0.000320484
0.0579026
0.000480406
0.0575512
0.000678341
0.0571656
0.000917047
0.0567386
0.00120375
0.0562638
0.00154259
0.0557303
0.00194661
0.055131
0.00241818
0.0544488
0.00298186
0.053678
0.00363228
0.052788
0.0044205
0.0517857
0.00531178
0.0506032
0.00644224
0.0492909
0.00763768
0.00950996
0.0645853
0.000392268
0.0641402
0.000431069
0.063686
0.000484235
0.0632253
0.000558556
0.0627555
0.000663349
0.0622699
0.000806036
0.0617618
0.000988546
0.0612252
0.00121493
0.0606553
0.00148698
0.0600437
0.00181534
0.0593852
0.00220109
0.0586663
0.00266546
0.057884
0.00320046
0.0570128
0.00385307
0.0560602
0.00458486
0.0549669
0.00551387
0.0537796
0.00649903
0.0523465
0.00787537
0.0508645
0.00911971
0.0114543
0.0698758
0.0011208
0.0691682
0.00113866
0.0684671
0.00118533
0.0677679
0.00125779
0.0670629
0.00136825
0.066343
0.001526
0.0656018
0.00172969
0.0648339
0.00198284
0.0640361
0.00228483
0.0631994
0.00265197
0.0623209
0.00307963
0.0613851
0.00360128
0.0603957
0.00418981
0.0593223
0.00492654
0.0581941
0.00571299
0.0569317
0.00677636
0.0556564
0.00777433
0.0540844
0.00944732
0.0526402
0.0105639
0.013932
0.0697088
0.00116161
0.0696874
0.00116014
0.0696808
0.00119188
0.0696879
0.00125069
0.069701
0.0013551
0.0697137
0.00151337
0.0697269
0.00171644
0.0697431
0.00196667
0.0697675
0.00226043
0.0698
0.00261944
0.06985
0.00302965
0.0699152
0.00353611
0.0700186
0.00408641