/*--------------------------------*- C++ -*----------------------------------*\
| =========                 |                                                 |
| \\      /  F ield         | OpenFOAM: The Open Source CFD Toolbox           |
|  \\    /   O peration     | Version:  4.1                                   |
|   \\  /    A nd           | Web:      www.OpenFOAM.org                      |
|    \\/     M anipulation  |                                                 |
\*---------------------------------------------------------------------------*/
FoamFile
{
    version     2.0;
    format      ascii;
    class       volVectorField;
    location    "13.2";
    object      U;
}
// * * * * * * * * * * * * * * * * * * * * * * * * * * * * * * * * * * * * * //

dimensions      [0 1 -1 0 0 0 0];

internalField   nonuniform List<vector> 
2000
(
(-0.0242297 0.021838 4.27729e-21)
(0.00878925 0.0188215 0)
(0.110096 0.00436187 2.18557e-21)
(0.26364 -0.0117631 -1.54807e-22)
(0.452377 -0.0233819 3.99371e-22)
(0.65573 -0.0285062 3.67516e-21)
(0.855658 -0.026919 -1.17838e-21)
(1.03436 -0.023052 0)
(1.20399 -0.011848 2.33488e-21)
(1.30863 -0.00562507 0)
(-0.0172115 0.015081 -2.00613e-21)
(0.0517287 0.000517129 8.2145e-22)
(0.206382 -0.0165967 -5.55484e-21)
(0.417889 -0.0286431 -3.74991e-21)
(0.654054 -0.0318734 -7.26974e-22)
(0.884112 -0.0273447 -1.49816e-21)
(1.08731 -0.0179775 6.91482e-22)
(1.25422 -0.00834357 1.82822e-21)
(1.3894 0.00380195 -2.33477e-21)
(1.4705 0.00410351 -5.78942e-21)
(-0.0034898 0.00665701 3.36676e-21)
(0.115836 -0.0187004 -3.15355e-21)
(0.334893 -0.03354 2.88833e-21)
(0.602638 -0.0359722 -1.19528e-21)
(0.868922 -0.0278381 5.18546e-22)
(1.09948 -0.0142565 -4.03096e-22)
(1.28102 -0.000101178 -1.18399e-21)
(1.41519 0.0110732 -1.82818e-21)
(1.51217 0.0197693 -2.59876e-21)
(1.58056 0.0202466 3.15122e-21)
(0.0190781 -0.00285233 -6.17244e-22)
(0.204002 -0.0356476 -4.35515e-21)
(0.491823 -0.0414782 0)
(0.800927 -0.0302266 1.37857e-21)
(1.07059 -0.0114316 -2.49845e-21)
(1.27646 0.00728367 0)
(1.42117 0.021724 0)
(1.51936 0.0303647 0)
(1.58998 0.0356493 2.59887e-21)
(1.63864 0.0336922 -7.00139e-21)
(0.0523912 -0.0121897 1.37106e-20)
(0.316081 -0.0458427 -9.98586e-23)
(0.665732 -0.0362484 4.0555e-21)
(0.990924 -0.0110983 1.44222e-21)
(1.2384 0.0141449 1.36447e-21)
(1.40568 0.0330215 2.74686e-22)
(1.51301 0.0442275 0)
(1.58435 0.0492207 -1.29888e-21)
(1.6377 0.0506399 9.35071e-21)
(1.6839 0.0467754 -1.3101e-20)
(0.097527 -0.0194332 -2.36285e-20)
(0.44725 -0.0445935 1.48386e-21)
(0.839949 -0.0162862 -7.89599e-21)
(1.15477 0.0189976 6.22661e-21)
(1.36472 0.0453187 -3.12923e-21)
(1.49226 0.0605925 1.3821e-21)
(1.57015 0.067139 0)
(1.62432 0.0681611 1.29898e-21)
(1.67076 0.0662718 -1.84245e-21)
(1.71575 0.0617601 -1.15702e-20)
(0.154211 -0.0221751 0)
(0.587911 -0.0285874 0)
(0.998587 0.0172206 -4.39416e-21)
(1.28389 0.0569401 4.09067e-21)
(1.45213 0.0798534 -7.236e-22)
(1.54592 0.0894244 6.79357e-22)
(1.6034 0.0908082 -3.24494e-21)
(1.64837 0.0879938 3.0672e-21)
(1.69197 0.0833028 5.94349e-21)
(1.73804 0.077871 -2.83475e-21)
(0.220265 -0.0179986 5.717e-21)
(0.725872 0.00291518 0)
(1.13124 0.0616295 -1.75463e-21)
(1.37743 0.10018 6.45326e-21)
(1.50689 0.116574 -2.38433e-21)
(1.57488 0.119381 0)
(1.61956 0.115537 0)
(1.66013 0.109 0)
(1.70354 0.101756 7.66581e-21)
(1.75078 0.0953391 -7.28674e-21)
(0.291586 -0.00512428 -3.07544e-21)
(0.849839 0.0481867 -3.16523e-22)
(1.23331 0.113972 -2.82798e-21)
(1.43831 0.146793 5.36739e-22)
(1.53509 0.154699 5.83599e-22)
(1.58481 0.150314 -3.09996e-22)
(1.62213 0.1413 0)
(1.66117 0.131139 1.12483e-21)
(1.70512 0.121536 6.23811e-21)
(1.75332 0.113465 -4.69174e-21)
(0.362763 0.0171451 0)
(0.951856 0.104027 -2.15761e-21)
(1.30402 0.171348 0)
(1.47049 0.195227 -4.98917e-22)
(1.54156 0.193542 -4.4856e-22)
(1.57912 0.181869 4.68355e-22)
(1.61267 0.167761 0)
(1.65158 0.154005 -1.12493e-21)
(1.69637 0.142008 -1.30193e-21)
(1.74545 0.131697 -1.6769e-21)
(-0.00448409 0.00435144 0)
(-0.0184422 0.00832771 4.84454e-22)
(-0.0385287 0.00971066 0)
(-0.05786 0.00980668 5.93506e-22)
(-0.0748701 0.00925187 1.77775e-22)
(-0.0893073 0.00841892 -3.40339e-22)
(-0.101281 0.00755493 3.20513e-22)
(-0.111133 0.00683394 -2.99208e-22)
(-0.119384 0.00640003 -1.06768e-24)
(-0.126872 0.0063951 -2.68889e-22)
(-0.00550099 0.0126679 1.58329e-21)
(-0.0197104 0.0242621 -9.74307e-22)
(-0.038718 0.0282977 8.20849e-22)
(-0.0562945 0.028518 -3.92649e-22)
(-0.0710994 0.0267802 -1.76964e-21)
(-0.0829379 0.0241785 6.67798e-22)
(-0.0919351 0.0214447 0)
(-0.0984087 0.0191179 2.98207e-22)
(-0.102769 0.0176541 2.83239e-22)
(-0.106087 0.0175148 0)
(-0.00743903 0.0198914 -1.05647e-21)
(-0.0221612 0.0381607 0)
(-0.0391371 0.0444771 -2.4005e-21)
(-0.0533786 0.0446127 2.9281e-21)
(-0.0639567 0.0414968 -6.66214e-22)
(-0.0708111 0.0368566 0)
(-0.0741141 0.0318606 0)
(-0.0741913 0.0274315 0)
(-0.0712277 0.0244191 -2.2964e-21)
(-0.0661297 0.0237749 2.1825e-21)
(-0.0101035 0.0255463 0)
(-0.0255787 0.0490309 1.57077e-21)
(-0.0397202 0.0569594 -2.90063e-21)
(-0.0491914 0.0566574 1.34575e-21)
(-0.053653 0.0519048 -1.28064e-21)
(-0.0532725 0.0449089 3.66302e-21)
(-0.0483107 0.0371422 7.73418e-23)
(-0.0392166 0.0298218 -2.2645e-21)
(-0.0261005 0.0243825 -2.39027e-21)
(-0.00792015 0.0234535 3.48885e-21)
(-0.0132685 0.0294644 -1.65096e-21)
(-0.0295632 0.0562745 2.62565e-21)
(-0.0400038 0.0648371 -1.13207e-22)
(-0.0431092 0.0635931 5.97562e-23)
(-0.0392575 0.0569488 -1.27067e-21)
(-0.028939 0.0474219 3.34828e-21)
(-0.0125723 0.0366019 0)
(0.00927944 0.0257969 1.14719e-21)
(0.0368247 0.0170431 -1.20841e-21)
(0.0719839 0.0149793 4.78117e-21)
(-0.0167094 0.0317166 -1.70664e-22)
(-0.0334455 0.0596379 -2.34359e-21)
(-0.0388117 0.0675452 -1.17265e-21)
(-0.033197 0.0646795 -8.30944e-22)
(-0.0177219 0.0559037 -1.11527e-21)
(0.00676201 0.0439645 -1.10816e-21)
(0.0395897 0.0304662 0)
(0.0797724 0.0165344 -1.14713e-21)
(0.126867 0.00396554 -4.15692e-21)
(0.188968 -3.09061e-06 8.62773e-22)
(-0.020194 0.0324896 2.48089e-23)
(-0.0361525 0.0590639 -7.87364e-22)
(-0.0339707 0.0648043 0)
(-0.0157622 0.0594403 2.2557e-21)
(0.0166375 0.0482677 -1.79726e-21)
(0.0619245 0.0342951 0)
(0.118929 0.0192482 0)
(0.185838 0.00415781 0)
(0.25824 -0.0111334 2.49767e-21)
(0.360234 -0.0155085 5.13895e-21)
(-0.023427 0.0319422 4.39697e-22)
(-0.0360594 0.0546267 -4.11877e-22)
(-0.0220056 0.056564 -9.19098e-22)
(0.0148953 0.0477955 3.80538e-22)
(0.0720773 0.0341075 -1.53582e-21)
(0.147184 0.0187881 -1.78034e-21)
(0.237545 0.00383203 -2.02299e-21)
(0.339867 -0.00917074 -2.28722e-21)
(0.441814 -0.0241964 -2.49737e-21)
(0.591682 -0.0246824 3.1753e-21)
(-0.0258503 0.030079 -1.02055e-21)
(-0.0308498 0.0463843 4.49733e-22)
(0.00190502 0.0430883 1.67597e-21)
(0.0663736 0.0305117 1.22908e-21)
(0.158465 0.0148993 3.18388e-22)
(0.273125 -0.000231715 2.10178e-21)
(0.404194 -0.0127759 -1.6675e-21)
(0.544504 -0.0208896 2.28694e-21)
(0.677562 -0.0309783 -2.47505e-21)
(0.859783 -0.0233549 5.8024e-21)
(-0.026542 0.0267837 9.7926e-22)
(-0.0172462 0.0343784 0)
(0.0437747 0.0251714 -2.64881e-22)
(0.147028 0.00953756 2.6196e-23)
(0.284388 -0.00595797 4.56185e-22)
(0.444904 -0.0179751 -1.8138e-21)
(0.616849 -0.024744 5.09571e-21)
(0.785901 -0.0268858 0)
(0.947567 -0.0267261 2.47472e-21)
(1.11743 -0.0121319 0)
(-0.134471 0.00673817 0)
(-0.142703 0.00661344 2.51455e-22)
(-0.15066 0.00631952 -4.99803e-22)
(-0.158251 0.00600379 2.17587e-22)
(-0.165512 0.00568399 0)
(-0.172439 0.00535847 -2.27079e-22)
(-0.179015 0.00502553 2.28204e-22)
(-0.185226 0.00468389 0)
(-0.191053 0.00433419 0)
(-0.196482 0.00398073 -2.39161e-23)
(-0.201504 0.00363108 0)
(-0.206121 0.00329598 0)
(-0.210352 0.00298915 0)
(-0.214237 0.00272654 0)
(-0.217827 0.00252444 2.52473e-23)
(-0.221184 0.00239541 -2.53781e-23)
(-0.224431 0.00234544 0)
(-0.227875 0.00237717 4.50718e-24)
(-0.23174 0.00248399 -4.53089e-24)
(-0.234816 0.00259857 0)
(-0.110766 0.0186388 0)
(-0.117533 0.0183161 -6.35467e-23)
(-0.124004 0.0175761 0)
(-0.130175 0.0167923 -9.39882e-22)
(-0.136204 0.01599 9.14264e-22)
(-0.142088 0.0151662 -5.90303e-23)
(-0.147805 0.0143175 4.39006e-22)
(-0.153336 0.0134372 -9.13778e-22)
(-0.158659 0.0125218 7.63204e-22)
(-0.163751 0.0115835 -4.21616e-22)
(-0.168593 0.0106415 -3.40903e-22)
(-0.173169 0.00972438 6.11275e-22)
(-0.17748 0.00886998 -3.11874e-22)
(-0.181536 0.00812398 -1.54666e-22)
(-0.185364 0.00753552 1.2187e-22)
(-0.188992 0.00714672 -2.39504e-23)
(-0.192502 0.00698119 -1.87634e-23)
(-0.196168 0.00704829 -1.87367e-23)
(-0.200292 0.00733684 1.88274e-23)
(-0.203729 0.00768161 -1.26457e-24)
(-0.0655335 0.0262219 6.3673e-23)
(-0.0697309 0.0256773 6.36576e-23)
(-0.0733885 0.0248338 6.44867e-23)
(-0.0768288 0.0239782 0)
(-0.0804142 0.0230899 1.08944e-21)
(-0.0841459 0.022167 -8.49936e-22)
(-0.0880014 0.0212042 0)
(-0.0919718 0.0201855 1.10961e-22)
(-0.0960306 0.0190691 5.16471e-23)
(-0.100145 0.0178922 -6.61208e-22)
(-0.104292 0.0166754 6.00121e-23)
(-0.108446 0.0154535 7.91346e-22)
(-0.11258 0.014277 3.95078e-23)
(-0.116675 0.0132114 3.31609e-23)
(-0.120713 0.012334 3.04522e-23)
(-0.124675 0.0117208 -6.32009e-23)
(-0.128567 0.0114251 6.09725e-23)
(-0.132586 0.0114744 6.53342e-23)
(-0.137116 0.011886 1.17283e-23)
(-0.141185 0.0124887 -1.55543e-24)
(-0.000271884 0.0265775 1.9961e-21)
(-0.00189608 0.0266594 2.49983e-23)
(-0.00185191 0.0261986 -7.91671e-23)
(-0.00176123 0.0255974 -2.08992e-21)
(-0.00205896 0.0250512 -1.93858e-22)
(-0.00274744 0.0245013 -6.09749e-23)
(-0.00381895 0.0238786 1.76416e-21)
(-0.00533679 0.0231501 -1.05096e-21)
(-0.00724265 0.0223228 -9.02802e-22)
(-0.00946512 0.0214067 8.59427e-22)
(-0.0120338 0.0204035 -6.05294e-23)
(-0.0149325 0.0193398 -8.82443e-22)
(-0.0181363 0.0182616 -3.91792e-23)
(-0.0216138 0.0172352 -3.4502e-22)
(-0.0253273 0.0163467 2.39695e-22)
(-0.0292232 0.0156943 1.8787e-22)
(-0.0332353 0.015363 -1.63889e-22)
(-0.0374275 0.0154045 0)
(-0.0422082 0.0158673 -2.55769e-23)
(-0.0470798 0.0166656 -1.41214e-24)
(0.0874671 0.0195796 -4.62156e-21)
(0.0897766 0.0211953 2.03145e-21)
(0.0918294 0.0210988 -2.1707e-21)
(0.0949202 0.0209317 0)
(0.0978468 0.0210184 1.31299e-22)
(0.100177 0.0211482 2.08513e-21)
(0.101959 0.0211731 5.46512e-23)
(0.103244 0.0210809 -8.52038e-23)
(0.104035 0.0209246 -1.9394e-21)
(0.104313 0.0206713 -1.07569e-22)
(0.104055 0.0203152 0)
(0.103246 0.0198685 9.26584e-23)
(0.101882 0.0193622 0)
(0.0999666 0.0188459 7.50592e-23)
(0.0975196 0.0183896 0)
(0.0945801 0.0180854 0)
(0.0912258 0.0180282 -4.368e-23)
(0.0874935 0.0182825 5.32962e-23)
(0.0830489 0.0188824 -4.76646e-23)
(0.0778069 0.0198834 1.22044e-23)
(0.210135 0.00781893 0)
(0.214281 0.0107259 1.3648e-22)
(0.216432 0.0110412 4.63547e-21)
(0.220601 0.0113697 -4.48493e-21)
(0.225194 0.0121388 1.49171e-22)
(0.229236 0.0129732 0)
(0.232766 0.0136866 2.17985e-21)
(0.23593 0.0143012 -4.14153e-21)
(0.238722 0.0148629 2.23649e-21)
(0.241071 0.0153684 1.28583e-22)
(0.242918 0.0158062 1.21319e-22)
(0.244216 0.0161795 1.13071e-22)
(0.244922 0.0165057 0)
(0.244999 0.0168166 -5.65776e-22)
(0.244424 0.0171571 1.31197e-21)
(0.243189 0.017595 -5.69919e-22)
(0.241328 0.0182062 5.7168e-23)
(0.238875 0.0190734 4.25357e-23)
(0.235733 0.0201801 -1.51649e-23)
(0.230957 0.0217547 1.52525e-23)
(0.382302 -0.00491237 -5.40831e-21)
(0.38568 -0.000730034 0)
(0.385193 -0.000195224 1.51473e-22)
(0.387606 0.000374435 -3.08811e-22)
(0.391367 0.00157311 -3.07281e-22)
(0.394874 0.00284709 -1.56163e-22)
(0.398096 0.00395752 -1.53938e-22)
(0.401257 0.00499312 2.14267e-21)
(0.404339 0.00603853 -2.55678e-21)
(0.407213 0.00709794 -2.34742e-21)
(0.409787 0.00815961 1.95595e-21)
(0.411993 0.00922732 -2.35656e-22)
(0.413771 0.0103112 8.25714e-22)
(0.415052 0.0114325 -1.78067e-22)
(0.415796 0.0126122 -9.09443e-22)
(0.415944 0.0139011 -7.89253e-23)
(0.41553 0.0153282 8.99194e-23)
(0.414437 0.0170177 -1.04911e-22)
(0.413068 0.0188623 -1.76786e-22)
(0.409503 0.0214448 -9.94961e-24)
(0.608112 -0.0128632 0)
(0.608433 -0.0088855 4.70459e-21)
(0.60387 -0.00939588 -4.83601e-21)
(0.602624 -0.00914882 1.58739e-22)
(0.603727 -0.00777224 3.25161e-22)
(0.605031 -0.00638212 1.56026e-22)
(0.60627 -0.0051949 3.17363e-22)
(0.607709 -0.00399992 0)
(0.609309 -0.00271282 1.44658e-22)
(0.610901 -0.00134354 1.38312e-22)
(0.612381 9.75428e-05 1.42737e-22)
(0.613682 0.00162043 2.56346e-22)
(0.614762 0.00322683 0)
(0.615546 0.00493472 0)
(0.616034 0.00673823 9.00521e-23)
(0.616103 0.00869432 7.61305e-22)
(0.615936 0.0107523 -5.32451e-22)
(0.615092 0.0131278 5.33153e-23)
(0.614648 0.0154325 1.06875e-22)
(0.612032 0.0190425 -3.28152e-23)
(0.867537 -0.0101505 -6.03216e-21)
(0.865329 -0.00806105 0)
(0.859593 -0.01066 0)
(0.856914 -0.0112279 5.53121e-21)
(0.856035 -0.0106944 -1.56881e-22)
(0.855109 -0.0103385 -1.09129e-20)
(0.854068 -0.00995198 5.24821e-21)
(0.85312 -0.00923077 0)
(0.852223 -0.00818153 0)
(0.851277 -0.00688077 0)
(0.850254 -0.00536495 -6.46711e-23)
(0.849121 -0.00364458 -2.03507e-22)
(0.847918 -0.0017759 -1.94918e-21)
(0.84656 0.000248469 1.87558e-21)
(0.845192 0.00238972 -7.66742e-22)
(0.843541 0.00474399 6.77422e-22)
(0.842137 0.00710824 0)
(0.840052 0.0099186 -2.33286e-23)
(0.839126 0.0122052 -3.29751e-23)
(0.836098 0.0163566 0)
(1.13186 -0.00653042 7.59859e-23)
(1.13397 -0.0118486 4.956e-21)
(1.13223 -0.0152038 -4.90447e-21)
(1.13042 -0.0148543 0)
(1.12778 -0.0138453 -5.71813e-21)
(1.12419 -0.0129483 1.14003e-20)
(1.1202 -0.0118683 -5.68245e-21)
(1.11607 -0.0105073 0)
(1.11181 -0.00895311 -2.69048e-21)
(1.10746 -0.00727007 5.23515e-21)
(1.10313 -0.0054723 -2.62109e-21)
(1.09879 -0.00354544 7.03148e-23)
(1.09461 -0.00151195 0)
(1.09045 0.000703828 1.91506e-21)
(1.08669 0.00294473 -2.64908e-21)
(1.08279 0.00540304 8.02829e-22)
(1.07969 0.0076727 5.35399e-22)
(1.0759 0.0105039 -3.70234e-22)
(1.07402 0.012387 -1.85926e-22)
(1.07001 0.0161967 0)
(1.4138 0.00073019 0)
(1.39797 -0.00325534 0)
(1.38587 -0.0051614 0)
(1.37452 -0.00577807 0)
(1.36377 -0.00594084 0)
(1.35404 -0.00577694 0)
(1.3454 -0.00527306 0)
(1.33766 -0.00450216 0)
(1.33059 -0.00353967 0)
(1.324 -0.00236944 0)
(1.31792 -0.00102807 0)
(1.31219 0.000501136 0)
(1.30699 0.00217325 0)
(1.3019 0.00408721 0)
(1.29742 0.00600959 0)
(1.29278 0.00822958 0)
(1.28924 0.0101817 0)
(1.28488 0.0128021 0)
(1.28275 0.0143614 0)
(1.27827 0.017753 0)
(1.5471 0.0104879 0)
(1.54 0.00969493 0)
(1.53366 0.00810705 0)
(1.52728 0.00627082 0)
(1.52073 0.00484091 0)
(1.51431 0.00398179 0)
(1.50827 0.0036195 0)
(1.50257 0.00365041 0)
(1.4972 0.00398747 0)
(1.49211 0.00463049 0)
(1.48734 0.00552401 0)
(1.48275 0.00667444 0)
(1.47854 0.00795765 0)
(1.47436 0.00946091 0)
(1.47074 0.0109763 0)
(1.46689 0.0128195 0)
(1.46405 0.0143826 0)
(1.46035 0.016576 0)
(1.45866 0.0177887 0)
(1.45469 0.0204752 0)
(1.6467 0.0149044 0)
(1.64296 0.0126962 0)
(1.63923 0.0109687 0)
(1.63572 0.00934589 0)
(1.63238 0.00807456 0)
(1.62917 0.00732189 0)
(1.6261 0.00702676 0)
(1.62318 0.00708998 0)
(1.62042 0.00744709 0)
(1.61779 0.00806218 0)
(1.61532 0.00887514 0)
(1.61296 0.00991284 0)
(1.61082 0.0110665 0)
(1.60872 0.0124466 0)
(1.60695 0.0138095 0)
(1.60508 0.0154813 0)
(1.60378 0.0168553 0)
(1.60208 0.0188016 0)
(1.6014 0.0198311 0)
(1.5997 0.0221305 0)
(1.73036 0.0186723 0)
(1.72892 0.0156717 0)
(1.72673 0.0135326 0)
(1.72462 0.011797 0)
(1.72286 0.0104255 0)
(1.7214 0.00949447 0)
(1.72009 0.00899855 0)
(1.71894 0.00888244 0)
(1.71791 0.00906931 0)
(1.71705 0.00953228 0)
(1.7163 0.0102002 0)
(1.71574 0.0111077 0)
(1.71527 0.0121254 0)
(1.71501 0.0133826 0)
(1.7148 0.014598 0)
(1.71486 0.0161362 0)
(1.71489 0.017349 0)
(1.71533 0.0191459 0)
(1.71549 0.0200314 0)
(1.71641 0.0221682 0)
(1.80799 0.020955 0)
(1.80801 0.0174804 0)
(1.80698 0.0149171 0)
(1.80581 0.0129693 0)
(1.80495 0.0114625 0)
(1.80443 0.0103719 0)
(1.80407 0.00968829 0)
(1.80389 0.0093899 0)
(1.80378 0.00940215 0)
(1.8039 0.00970812 0)
(1.80408 0.0102155 0)
(1.80456 0.0109759 0)
(1.805 0.0118296 0)
(1.80588 0.0129456 0)
(1.80653 0.0139921 0)
(1.80787 0.0153959 0)
(1.80862 0.0164389 0)
(1.81056 0.0181104 0)
(1.81117 0.0188596 0)
(1.81396 0.0208846 0)
(1.88643 0.0218673 0)
(1.88717 0.0182032 0)
(1.88688 0.0154024 0)
(1.8863 0.0132985 0)
(1.88588 0.01169 0)
(1.88579 0.0104937 0)
(1.88586 0.00967347 0)
(1.88611 0.00922616 0)
(1.8864 0.0090796 0)
(1.88694 0.00923419 0)
(1.88748 0.00957738 0)
(1.88841 0.0101839 0)
(1.88919 0.0108635 0)
(1.89057 0.0118257 0)
(1.89153 0.0126925 0)
(1.89347 0.013946 0)
(1.89446 0.0148155 0)
(1.89713 0.0163431 0)
(1.89787 0.0169626 0)
(1.90158 0.0188442 0)
(1.96806 0.021985 0)
(1.96911 0.018382 0)
(1.96919 0.0155284 0)
(1.96888 0.0133389 0)
(1.96861 0.0116513 0)
(1.96862 0.0103742 0)
(1.96877 0.00944677 0)
(1.96913 0.0088726 0)
(1.96947 0.00857913 0)
(1.97011 0.00858612 0)
(1.97066 0.00876757 0)
(1.97168 0.00921734 0)
(1.97247 0.00972324 0)
(1.97396 0.0105212 0)
(1.9749 0.0112094 0)
(1.97698 0.0122946 0)
(1.97793 0.0129977 0)
(1.98079 0.0143531 0)
(1.98147 0.0148546 0)
(1.98541 0.0165466 0)
(2.05147 0.0218311 0)
(2.05263 0.0184055 0)
(2.05288 0.0155875 0)
(2.0527 0.0133575 0)
(2.05246 0.0116075 0)
(2.05247 0.0102616 0)
(2.05257 0.00924468 0)
(2.0529 0.00855996 0)
(2.05318 0.00813326 0)
(2.05377 0.00799853 0)
(2.05423 0.00802581 0)
(2.05519 0.00831846 0)
(2.05585 0.00865813 0)
(2.05729 0.00928603 0)
(2.05809 0.00980523 0)
(2.06012 0.0107096 0)
(2.06093 0.0112597 0)
(2.06372 0.0124211 0)
(2.06429 0.0128183 0)
(2.06811 0.0142869 0)
(2.13313 0.0215784 0)
(2.1344 0.0183437 0)
(2.13484 0.0155911 0)
(2.13486 0.0133538 0)
(2.13474 0.0115661 0)
(2.13482 0.0101689 0)
(2.13495 0.00908111 0)
(2.13532 0.00830299 0)
(2.13559 0.00776056 0)
(2.1362 0.00749447 0)
(2.13662 0.00738017 0)
(2.13757 0.00752016 0)
(2.13817 0.00770583 0)
(2.13958 0.0081639 0)
(2.14029 0.0085278 0)
(2.14228 0.00924664 0)
(2.14299 0.00965891 0)
(2.14571 0.010616 0)
(2.1462 0.0109219 0)
(2.14989 0.0121512 0)
(2.20951 0.021069 0)
(2.21108 0.0180185 0)
(2.21191 0.0153526 0)
(2.21235 0.0131437 0)
(2.21259 0.0113525 0)
(2.21299 0.00993056 0)
(2.21337 0.00879598 0)
(2.21399 0.00794592 0)
(2.21447 0.00730995 0)
(2.21529 0.00692953 0)
(2.21587 0.00669192 0)
(2.21701 0.00669127 0)
(2.21771 0.00673968 0)
(2.21927 0.00703683 0)
(2.22006 0.00726198 0)
(2.22217 0.00780142 0)
(2.22291 0.00809143 0)
(2.22574 0.00884785 0)
(2.22623 0.00907386 0)
(2.22999 0.0100674 0)
(2.27914 0.0199563 0)
(2.28131 0.0171059 0)
(2.28285 0.0145603 0)
(2.28403 0.0124227 0)
(2.28496 0.0106697 0)
(2.28599 0.00925867 0)
(2.28692 0.00810917 0)
(2.28807 0.00721691 0)
(2.28903 0.00651689 0)
(2.29033 0.00604926 0)
(2.29132 0.00571463 0)
(2.29289 0.00559675 0)
(2.29392 0.00553144 0)
(2.29588 0.005689 0)
(2.29692 0.00579684 0)
(2.29939 0.00617716 0)
(2.30032 0.00636298 0)
(2.30348 0.00693914 0)
(2.30407 0.00709693 0)
(2.30819 0.00787808 0)
(2.34457 0.017856 0)
(2.34759 0.015248 0)
(2.3501 0.0128746 0)
(2.35229 0.0108616 0)
(2.35416 0.00919634 0)
(2.35607 0.00784186 0)
(2.35779 0.00671959 0)
(2.3597 0.005827 0)
(2.36134 0.00510298 0)
(2.36333 0.00458842 0)
(2.36491 0.00419353 0)
(2.36709 0.00399617 0)
(2.36863 0.0038499 0)
(2.37113 0.00390433 0)
(2.37256 0.00392344 0)
(2.37555 0.00418117 0)
(2.37675 0.0042854 0)
(2.38041 0.00471962 0)
(2.38115 0.00482269 0)
(2.38578 0.00543492 0)
(2.41297 0.0145414 0)
(2.41683 0.0122347 0)
(2.4203 0.0101026 0)
(2.4235 0.00828008 0)
(2.42632 0.00675953 0)
(2.4291 0.00551554 0)
(2.4316 0.00447168 0)
(2.43425 0.00363145 0)
(2.43656 0.00293325 0)
(2.4392 0.00242368 0)
(2.44135 0.00201434 0)
(2.4441 0.00178699 0)
(2.44609 0.00160037 0)
(2.44909 0.00160013 0)
(2.45088 0.00156534 0)
(2.45429 0.00174947 0)
(2.45575 0.00179899 0)
(2.4598 0.00214252 0)
(2.46068 0.00220642 0)
(2.46568 0.0027068 0)
(2.49389 0.010215 0)
(2.49814 0.00826409 0)
(2.50213 0.00644087 0)
(2.5059 0.00487205 0)
(2.50924 0.00355009 0)
(2.51248 0.0024671 0)
(2.51538 0.0015496 0)
(2.51838 0.000813035 0)
(2.521 0.00018906 0)
(2.52392 -0.000263761 0)
(2.52631 -0.000641717 0)
(2.52925 -0.000849118 0)
(2.53141 -0.00103546 0)
(2.53452 -0.0010419 0)
(2.53641 -0.00109623 0)
(2.53986 -0.000937519 0)
(2.54136 -0.000916552 0)
(2.54537 -0.000613922 0)
(2.54626 -0.000574113 0)
(2.55114 -0.000131063 0)
(2.59358 0.00562731 0)
(2.59741 0.00405511 0)
(2.60111 0.00257878 0)
(2.60464 0.00129474 0)
(2.60775 0.000200624 0)
(2.61072 -0.0006914 0)
(2.61333 -0.00145343 0)
(2.61599 -0.00205529 0)
(2.6183 -0.00257436 0)
(2.62084 -0.0029383 0)
(2.6229 -0.00325546 0)
(2.62541 -0.00341136 0)
(2.62723 -0.00357032 0)
(2.62984 -0.0035524 0)
(2.63141 -0.00360273 0)
(2.63425 -0.00343965 0)
(2.63548 -0.00342871 0)
(2.63876 -0.00313715 0)
(2.63948 -0.00311026 0)
(2.64345 -0.00269271 0)
(2.70899 0.00179498 0)
(2.71165 0.000580742 0)
(2.71428 -0.000559756 0)
(2.71677 -0.00156185 0)
(2.71893 -0.00243291 0)
(2.72089 -0.00313983 0)
(2.72256 -0.00374892 0)
(2.72421 -0.00421756 0)
(2.7256 -0.00462961 0)
(2.72711 -0.00490322 0)
(2.7283 -0.00515504 0)
(2.72976 -0.00525694 0)
(2.73077 -0.00538242 0)
(2.73226 -0.00533768 0)
(2.7331 -0.00537696 0)
(2.73474 -0.00520781 0)
(2.73538 -0.00519983 0)
(2.73728 -0.00491912 0)
(2.73765 -0.0048999 0)
(2.73994 -0.00450899 0)
(2.82711 -0.000607344 0)
(2.82833 -0.0015111 0)
(2.82958 -0.00235759 0)
(2.8307 -0.00310486 0)
(2.83155 -0.0037726 0)
(2.83219 -0.00431553 0)
(2.8326 -0.0047887 0)
(2.83292 -0.00514301 0)
(2.83311 -0.00546145 0)
(2.83328 -0.00566137 0)
(2.83333 -0.00585646 0)
(2.83342 -0.0059199 0)
(2.83338 -0.00601755 0)
(2.83344 -0.00596244 0)
(2.83336 -0.00599371 0)
(2.83344 -0.00583683 0)
(2.83336 -0.0058324 0)
(2.8335 -0.00558367 0)
(2.83345 -0.00557098 0)
(2.83367 -0.00523136 0)
(2.93139 -0.00157787 0)
(2.93139 -0.00221531 0)
(2.93143 -0.0028049 0)
(2.9313 -0.0033257 0)
(2.93098 -0.00379939 0)
(2.93039 -0.00418438 0)
(2.92966 -0.00452411 0)
(2.92873 -0.00477347 0)
(2.9278 -0.00500216 0)
(2.9267 -0.00513939 0)
(2.92569 -0.00528043 0)
(2.92447 -0.00531849 0)
(2.92345 -0.00539014 0)
(2.92212 -0.00534078 0)
(2.92118 -0.00536485 0)
(2.91976 -0.00523987 0)
(2.919 -0.00523848 0)
(2.91745 -0.00504502 0)
(2.917 -0.00503746 0)
(2.91522 -0.00477607 0)
(3.0086 -0.00137326 0)
(3.00773 -0.00178652 0)
(3.0069 -0.00215463 0)
(3.00587 -0.00247155 0)
(3.00468 -0.0027583 0)
(3.00318 -0.00298963 0)
(3.00161 -0.00319451 0)
(2.99975 -0.00334256 0)
(2.998 -0.00347957 0)
(2.99594 -0.00355928 0)
(2.99414 -0.00364371 0)
(2.99191 -0.00366348 0)
(2.99017 -0.00370624 0)
(2.98778 -0.00367275 0)
(2.9862 -0.00368676 0)
(2.98362 -0.00360706 0)
(2.98237 -0.00360573 0)
(2.9795 -0.003484 0)
(2.97876 -0.00347907 0)
(2.97544 -0.00331504 0)
(3.04976 -0.000370452 0)
(3.04842 -0.000550312 0)
(3.04712 -0.000703221 0)
(3.0456 -0.000830131 0)
(3.04395 -0.000941688 0)
(3.04195 -0.00103106 0)
(3.03992 -0.00110908 0)
(3.03756 -0.00116587 0)
(3.03536 -0.00121749 0)
(3.03277 -0.00124866 0)
(3.03055 -0.00128058 0)
(3.02778 -0.00129004 0)
(3.02565 -0.00130658 0)
(3.02267 -0.00129713 0)
(3.02076 -0.00130303 0)
(3.01754 -0.00127743 0)
(3.01603 -0.00127751 0)
(3.01245 -0.00123738 0)
(3.01156 -0.00123584 0)
(3.0074 -0.00118111 0)
(1.79839 0.11916 1.63846e-21)
(1.80524 0.106499 0)
(1.80175 0.0931704 -2.55259e-22)
(1.78955 0.0795784 -7.63305e-21)
(1.76729 0.0658527 1.08925e-20)
(1.739 0.0530848 0)
(1.70009 0.0397667 7.59292e-21)
(1.64915 0.0302496 0)
(1.60202 0.0153996 6.05289e-21)
(1.43722 0.00309681 -9.22197e-23)
(1.85916 0.109749 -1.91507e-21)
(1.86402 0.0990092 3.52867e-22)
(1.8594 0.0874706 -3.53577e-22)
(1.84566 0.0767521 -1.13294e-21)
(1.82488 0.0647933 -7.21289e-21)
(1.79288 0.0554008 -4.06322e-22)
(1.76652 0.0435081 0)
(1.70269 0.0358263 -9.10326e-21)
(1.69836 0.0272586 0)
(1.5543 0.011894 -6.28905e-21)
(1.92552 0.100337 3.96348e-21)
(1.92747 0.0912312 0)
(1.92357 0.0807922 -3.28462e-22)
(1.90573 0.0720282 -7.41341e-22)
(1.8899 0.0616059 7.6288e-21)
(1.84915 0.0539993 0)
(1.83582 0.0452274 1.23537e-20)
(1.76044 0.0367848 9.39883e-21)
(1.76759 0.0330511 0)
(1.6501 0.0190518 6.22445e-21)
(1.99411 0.0921531 -1.80438e-21)
(1.99286 0.0842162 7.21992e-21)
(1.9919 0.0750895 0)
(1.96951 0.0673393 1.01759e-20)
(1.95994 0.058876 5.3008e-22)
(1.91228 0.0512087 -9.85518e-22)
(1.90518 0.0453333 -1.18182e-20)
(1.82811 0.0358274 -3.89015e-22)
(1.82914 0.0334994 -1.1025e-20)
(1.73078 0.0231959 0)
(2.06171 0.0850484 0)
(2.05794 0.0778572 -7.04753e-21)
(2.06043 0.0703221 -7.76994e-21)
(2.03571 0.0629323 1.0709e-21)
(2.0307 0.0564648 -6.79407e-22)
(1.982 0.04841 -5.09135e-22)
(1.9749 0.0441183 -1.5125e-20)
(1.90301 0.0351188 -8.27118e-22)
(1.89623 0.0323661 -1.07121e-21)
(1.80688 0.0253308 1.0405e-20)
(2.12532 0.0786051 2.3559e-21)
(2.12053 0.0719436 4.78283e-22)
(2.12562 0.0658863 -1.29108e-21)
(2.10173 0.0588038 4.18764e-22)
(2.09918 0.0537496 -1.13723e-20)
(2.05425 0.0460864 0)
(2.04611 0.0422662 1.65303e-20)
(1.98086 0.0349284 -4.89773e-22)
(1.97114 0.0314356 2.59709e-20)
(1.8849 0.0261737 -2.19271e-20)
(2.18264 0.0724392 -2.36749e-21)
(2.17837 0.0663529 -4.34757e-21)
(2.1852 0.0613812 7.37662e-21)
(2.1643 0.0549442 -1.28757e-20)
(2.16368 0.0506521 -1.52694e-21)
(2.12431 0.0441011 -1.06561e-20)
(2.1175 0.0403026 5.3453e-22)
(2.05805 0.0345603 -1.00368e-21)
(2.04995 0.0306442 -1.3091e-20)
(1.96651 0.0261547 1.15111e-20)
(2.23281 0.0662069 0)
(2.2299 0.0608461 9.41299e-21)
(2.23824 0.0566171 -9.93325e-22)
(2.2209 0.0511226 6.98287e-21)
(2.22284 0.0472825 -6.72847e-22)
(2.18885 0.0419893 2.13331e-20)
(2.18573 0.0382777 -9.48163e-21)
(2.13187 0.0335983 0)
(2.1276 0.0297488 0)
(2.04994 0.0257268 0)
(2.27685 0.0596686 0)
(2.27549 0.0551029 -8.66764e-21)
(2.28535 0.0514654 -5.45805e-22)
(2.27115 0.0469637 7.20381e-21)
(2.27596 0.0435806 1.28437e-20)
(2.2467 0.0393411 -1.20205e-20)
(2.2478 0.0359946 1.14096e-20)
(2.20035 0.0320729 -6.10291e-22)
(2.20003 0.0286726 0)
(2.13156 0.0251613 7.51489e-21)
(2.31824 0.0526668 3.1415e-22)
(2.31828 0.0488484 4.9492e-21)
(2.32926 0.0457758 7.61739e-21)
(2.31751 0.0421495 -4.05652e-22)
(2.32432 0.0393216 9.05607e-22)
(2.29922 0.0359328 -1.32277e-20)
(2.30318 0.0331709 1.26143e-20)
(2.2628 0.0299949 -6.43861e-22)
(2.26508 0.0271754 0)
(2.20771 0.0243561 -1.54232e-20)
(2.36301 0.0451966 0)
(2.36417 0.0420234 4.94354e-21)
(2.3753 0.0394827 2.22994e-22)
(2.36525 0.0365894 0)
(2.37225 0.0343228 0)
(2.35052 0.031693 1.17349e-20)
(2.35492 0.0295219 -1.04637e-20)
(2.32099 0.0271787 -6.10675e-22)
(2.32384 0.0248606 3.29381e-22)
(2.27681 0.0229451 8.17358e-21)
(2.41877 0.0372043 0)
(2.42055 0.034669 -9.42574e-21)
(2.43065 0.032606 -1.01198e-20)
(2.42146 0.0303722 1.51435e-21)
(2.42682 0.0285472 -9.67634e-22)
(2.40712 0.0266466 -7.89975e-22)
(2.40972 0.0248871 1.48863e-21)
(2.38 0.0234145 9.49938e-21)
(2.3817 0.0214307 9.11704e-22)
(2.34145 0.02052 -2.80319e-22)
(2.49221 0.0290989 0)
(2.49381 0.0271904 5.08162e-21)
(2.50204 0.0254887 -5.55365e-22)
(2.49276 0.0238501 5.50779e-22)
(2.49559 0.0222728 0)
(2.47627 0.0210212 0)
(2.47614 0.0194416 0)
(2.44755 0.0187217 -1.07847e-20)
(2.44745 0.0169205 1.00812e-20)
(2.40907 0.0168548 0)
(2.58513 0.0217177 0)
(2.58567 0.020311 3.25047e-21)
(2.59198 0.0188257 4.16144e-21)
(2.58188 0.0176425 5.36069e-21)
(2.5827 0.0161578 -1.01609e-21)
(2.56261 0.0153491 6.22953e-21)
(2.56059 0.0138098 -5.55816e-21)
(2.53089 0.0135236 0)
(2.52961 0.0118368 6.28269e-22)
(2.48963 0.0121704 -9.53873e-21)
(2.69172 0.0156644 -7.28785e-22)
(2.69074 0.0145946 -2.6379e-21)
(2.69575 0.0132775 -5.38022e-21)
(2.68492 0.0123527 -3.77159e-21)
(2.68519 0.0109538 0)
(2.66463 0.0103024 -7.92193e-21)
(2.6625 0.0088329 7.97889e-21)
(2.63207 0.00857001 -7.55134e-22)
(2.6308 0.00703629 -4.98969e-21)
(2.58978 0.00723817 1.38742e-20)
(2.79946 0.0112051 7.32525e-22)
(2.79744 0.0103018 -2.05704e-21)
(2.80195 0.00919537 1.82712e-21)
(2.79154 0.00834273 -4.48242e-21)
(2.79253 0.00713765 0)
(2.77348 0.00641369 0)
(2.77261 0.00514586 7.868e-22)
(2.74452 0.00462698 -7.41714e-21)
(2.74402 0.00333202 -4.54427e-21)
(2.7064 0.00309315 -4.67474e-21)
(2.89492 0.00799608 0)
(2.89312 0.00718145 3.3706e-21)
(2.89752 0.00635879 -1.22528e-21)
(2.88929 0.00551618 3.99909e-21)
(2.89127 0.00461547 1.06815e-21)
(2.87631 0.00377943 -8.87781e-22)
(2.87681 0.00281771 1.66676e-21)
(2.85487 0.00204271 5.13512e-21)
(2.85502 0.00103686 0)
(2.82596 0.000409357 0)
(2.9705 0.00531924 0)
(2.96997 0.00467262 1.38107e-21)
(2.97405 0.00418877 -2.50906e-21)
(2.96915 0.00345963 0)
(2.97148 0.00290462 -2.081e-21)
(2.96212 0.00210495 -8.9906e-22)
(2.96315 0.001469 -2.50732e-21)
(2.94935 0.000645884 -7.26745e-22)
(2.94955 -7.23275e-05 3.79045e-22)
(2.93145 -0.000828927 3.16097e-22)
(3.02458 0.00280667 0)
(3.02527 0.00247666 -1.38768e-21)
(3.02847 0.00233613 -1.24676e-21)
(3.02661 0.00190346 1.71244e-21)
(3.02847 0.00167707 9.94528e-22)
(3.02416 0.00113569 9.45188e-22)
(3.02487 0.000801262 4.192e-21)
(3.01831 0.000187085 -3.04917e-21)
(3.01805 -0.000259359 7.08162e-22)
(3.00951 -0.000874739 0)
(3.05429 0.000638778 0)
(3.05547 0.000646756 6.77178e-22)
(3.05778 0.000731809 -6.45808e-22)
(3.05756 0.000677658 6.08521e-22)
(3.05878 0.000695041 0)
(3.05733 0.000556268 -9.49849e-22)
(3.05752 0.000485618 8.23195e-22)
(3.05506 0.000271394 7.29158e-22)
(3.05432 0.000110446 0)
(3.05116 -0.000150573 0)
(1.12768 0.226 0)
(1.06583 0.24658 -5.42533e-20)
(1.01678 0.274665 0)
(0.977068 0.311234 -1.79617e-19)
(0.942408 0.355866 6.80513e-20)
(0.910334 0.410198 2.19869e-21)
(0.877494 0.47439 5.99932e-20)
(0.826067 0.536839 -6.8729e-21)
(0.699324 0.544324 0)
(0.387362 0.333402 6.31604e-20)
(1.21929 0.228474 9.91797e-20)
(1.15861 0.255126 5.42522e-20)
(1.10918 0.281886 -5.16233e-20)
(1.06788 0.317269 6.05078e-20)
(1.03284 0.361873 -5.19658e-20)
(1.00284 0.416249 7.24185e-21)
(0.973796 0.480011 -6.13998e-20)
(0.92491 0.540829 -1.22615e-19)
(0.790328 0.544925 -3.25508e-20)
(0.438436 0.328704 -9.24494e-20)
(1.30591 0.226991 -4.39262e-20)
(1.24925 0.25589 4.5502e-20)
(1.20066 0.282025 5.16217e-20)
(1.15793 0.316566 5.29417e-20)
(1.12223 0.360675 5.41331e-20)
(1.09392 0.414221 5.49376e-20)
(1.06813 0.476206 8.63885e-21)
(1.02062 0.533332 5.36317e-20)
(0.876367 0.532161 2.13544e-20)
(0.48369 0.31399 -2.27953e-20)
(1.38999 0.222985 8.77226e-20)
(1.33591 0.252364 -4.55001e-20)
(1.28801 0.277654 0)
(1.24455 0.310809 0)
(1.20862 0.353335 0)
(1.18177 0.404773 4.13991e-20)