/*--------------------------------*- C++ -*----------------------------------*\
| =========                 |                                                 |
| \\      /  F ield         | OpenFOAM: The Open Source CFD Toolbox           |
|  \\    /   O peration     | Version:  4.1                                   |
|   \\  /    A nd           | Web:      www.OpenFOAM.org                      |
|    \\/     M anipulation  |                                                 |
\*---------------------------------------------------------------------------*/
FoamFile
{
    version     2.0;
    format      ascii;
    class       volVectorField;
    location    "13.4";
    object      U;
}
// * * * * * * * * * * * * * * * * * * * * * * * * * * * * * * * * * * * * * //

dimensions      [0 1 -1 0 0 0 0];

internalField   nonuniform List<vector> 
2000
(
(-0.0242805 0.0219931 6.47879e-21)
(0.00987828 0.0185866 0)
(0.113328 0.00358142 5.93657e-21)
(0.269521 -0.0131316 1.58771e-21)
(0.460837 -0.0252957 -2.85105e-21)
(0.666173 -0.030909 -8.66006e-22)
(0.867212 -0.0297602 2.50422e-22)
(1.04613 -0.0263345 0)
(1.21519 -0.0155272 1.10327e-21)
(1.31913 -0.00978623 0)
(-0.0170542 0.0150708 -3.10465e-21)
(0.0535754 -8.29858e-05 1.83794e-21)
(0.210965 -0.0177728 -9.35142e-21)
(0.425416 -0.0303264 -9.01878e-21)
(0.663879 -0.0339877 -7.37485e-22)
(0.895135 -0.029851 1.18927e-23)
(1.09844 -0.0208643 -7.32315e-22)
(1.26469 -0.0116143 5.10896e-22)
(1.39879 0.000208047 -1.10321e-21)
(1.47881 0.000153031 -3.53022e-21)
(-0.00304882 0.00649315 4.48592e-21)
(0.118638 -0.0196024 -4.20183e-21)
(0.340961 -0.0349681 4.79338e-21)
(0.611551 -0.0377909 -1.21115e-21)
(0.879375 -0.0300078 2.15606e-21)
(1.11013 -0.0167873 1.11924e-21)
(1.29098 -0.00299691 2.3197e-22)
(1.42409 0.00782945 -5.10886e-22)
(1.52011 0.0162721 -1.38191e-21)
(1.58776 0.0164717 2.01507e-21)
(0.0198917 -0.00315069 -6.24412e-22)
(0.207929 -0.0367388 -5.41898e-21)
(0.499292 -0.0429743 0)
(0.810658 -0.03203 3.14178e-21)
(1.08088 -0.0135801 -4.15691e-21)
(1.28617 0.00476401 0)
(1.42988 0.0188606 0)
(1.52719 0.0272284 0)
(1.59729 0.0323495 1.38196e-21)
(1.64574 0.0302054 -4.75495e-21)
(0.0536718 -0.0125938 1.60278e-20)
(0.321204 -0.0469718 -1.02384e-22)
(0.674253 -0.0376529 5.03736e-21)
(1.00082 -0.0128069 2.33653e-21)
(1.24805 0.012055 2.18246e-21)
(1.41442 0.0305654 1.02504e-21)
(1.52088 0.0414878 0)
(1.59171 0.0462987 -6.58243e-22)
(1.64495 0.0476181 6.37801e-21)
(1.69134 0.0436615 -9.15834e-21)
(0.099362 -0.0198941 -2.713e-20)
(0.453488 -0.0455941 1.49768e-21)
(0.849029 -0.017502 -9.85042e-21)
(1.16438 0.0174217 8.02753e-21)
(1.37363 0.0433361 -5.55697e-21)
(1.50029 0.0582796 2.143e-21)
(1.5776 0.0646107 0)
(1.63159 0.0655126 6.58291e-22)
(1.6782 0.0635635 -1.24677e-21)
(1.72361 0.0590077 -9.39415e-21)
(0.156655 -0.0226213 0)
(0.595021 -0.0293236 0)
(1.00779 0.0162391 -5.36081e-21)
(1.293 0.0555314 4.99055e-21)
(1.46041 0.0780368 -1.51631e-21)
(1.55349 0.0873208 1.4236e-21)
(1.61066 0.0885393 -1.90847e-21)
(1.65571 0.0856402 1.80393e-21)
(1.69968 0.0809077 4.79273e-21)
(1.74633 0.0754632 -2.28757e-21)
(0.223318 -0.0183466 6.30167e-21)
(0.733521 0.00251992 0)
(1.14027 0.0609053 -2.22732e-21)
(1.38601 0.0989737 8.19672e-21)
(1.51467 0.11497 -3.57309e-21)
(1.58216 0.117526 0)
(1.62675 0.113548 0)
(1.66757 0.10694 0)
(1.71149 0.0996618 6.54243e-21)
(1.75942 0.0932441 -6.21891e-21)
(0.295186 -0.00529311 -3.37219e-21)
(0.857702 0.0481542 -3.22379e-22)
(1.242 0.113516 -3.30835e-21)
(1.44638 0.145819 7.45376e-22)
(1.54246 0.153338 7.82592e-22)
(1.59187 0.148726 4.407e-23)
(1.62928 0.13959 0)
(1.66868 0.129358 9.79506e-22)
(1.71322 0.11972 5.55869e-21)
(1.76221 0.111644 -4.17415e-21)
(0.366792 0.0172211 0)
(0.959681 0.104349 -2.42143e-21)
(1.31228 0.171163 0)
(1.47807 0.194503 -6.06902e-22)
(1.54858 0.192439 -5.48815e-22)
(1.58599 0.180549 2.9757e-22)
(1.61975 0.166318 0)
(1.6591 0.152488 -9.796e-22)
(1.70451 0.140451 -1.16707e-21)
(1.75444 0.130115 -1.55473e-21)
(-0.00454855 0.00439244 0)
(-0.0186121 0.00835688 2.52862e-22)
(-0.0387289 0.00968085 0)
(-0.0579467 0.00969933 2.98022e-22)
(-0.0747026 0.0090586 8.66864e-23)
(-0.0887555 0.00813362 -1.72921e-22)
(-0.100222 0.00717284 1.62848e-22)
(-0.109454 0.00635402 -1.54201e-22)
(-0.116985 0.0058268 1.30414e-24)
(-0.12367 0.0057378 -1.43792e-22)
(-0.00559125 0.0128016 8.45151e-22)
(-0.0199376 0.0243691 -5.14334e-22)
(-0.0390122 0.0282344 3.94484e-22)
(-0.056519 0.0282289 -1.96323e-22)
(-0.0711241 0.0262407 -8.59796e-22)
(-0.0826438 0.0233699 3.27813e-22)
(-0.0912091 0.0203513 0)
(-0.0971448 0.0177338 1.53685e-22)
(-0.100876 0.0159922 1.49597e-22)
(-0.103481 0.0156075 0)
(-0.00757907 0.0201423 -5.63995e-22)
(-0.0224858 0.0383936 0)
(-0.0395758 0.0444484 -1.12109e-21)
(-0.0538034 0.0442312 1.345e-21)
(-0.0642519 0.0407229 -2.94357e-22)
(-0.0708731 0.0356596 0)
(-0.0738425 0.0302106 0)
(-0.0734868 0.0253106 0)
(-0.0700046 0.0218398 -1.22336e-21)
(-0.0643141 0.0207929 1.16269e-21)
(-0.0103112 0.025935 0)
(-0.0260089 0.0494392 6.38169e-22)
(-0.0402785 0.0570466 -1.17527e-21)
(-0.0497484 0.0562989 5.43778e-22)
(-0.0540974 0.0510493 -5.40423e-22)
(-0.0535057 0.0435162 1.59341e-21)
(-0.0482341 0.0351685 9.64208e-23)
(-0.0387274 0.0272293 -1.05832e-21)
(-0.0251098 0.021164 -1.29425e-21)
(-0.0063767 0.0196764 1.92624e-21)
(-0.0135495 0.0299877 -6.50848e-22)
(-0.0300673 0.0568755 7.33113e-22)
(-0.0405727 0.0650927 -1.19952e-22)
(-0.0435868 0.0633506 6.46804e-23)
(-0.0395105 0.0561486 -5.26745e-22)
(-0.0288443 0.0460217 1.22324e-21)
(-0.012007 0.0345532 0)
(0.0104353 0.0230459 5.26405e-22)
(0.0386753 0.0135458 -6.3005e-22)
(0.0747323 0.0108108 2.68134e-21)
(-0.0170517 0.0323367 -1.77495e-22)
(-0.0339542 0.06039 -4.3897e-22)
(-0.0392177 0.0679542 -2.93837e-22)
(-0.0332828 0.0645699 9.40111e-24)
(-0.0172964 0.0552077 -3.5361e-22)
(0.00788069 0.0426459 -3.96688e-22)
(0.0415768 0.0284898 0)
(0.0827691 0.0138545 -5.26375e-22)
(0.130904 0.000507962 -2.42054e-21)
(0.194529 -0.0041814 2.95958e-22)
(-0.0205678 0.0331383 2.53206e-23)
(-0.0365699 0.0598612 1.80955e-22)
(-0.0340183 0.0652696 0)
(-0.0151284 0.0593752 6.08793e-22)
(0.0182235 0.0475931 -2.36722e-22)
(0.0647075 0.0329815 0)
(0.123114 0.0172851 0)
(0.191578 0.00156004 0)
(0.265324 -0.0144457 1.27927e-21)
(0.369419 -0.0195108 2.97299e-21)
(-0.02379 0.032537 -6.08e-22)
(-0.0362802 0.0553314 5.69531e-22)
(-0.0215075 0.0569258 9.04275e-22)
(0.0165257 0.0476021 3.99288e-22)
(0.0751836 0.0332772 5.27619e-23)
(0.152026 0.0172971 -2.89231e-22)
(0.24426 0.00168832 -6.21639e-22)
(0.348519 -0.0118763 -9.71052e-22)
(0.451865 -0.0274939 -1.27912e-21)
(0.603804 -0.0285883 2.04294e-21)
(-0.0261526 0.0305578 -4.22383e-21)
(-0.0307638 0.0468607 -5.37078e-22)
(0.00311696 0.0431689 -1.98748e-21)
(0.0692235 0.0300067 -4.76171e-22)
(0.163314 0.0137417 3.32785e-22)
(0.280132 -0.00204677 6.17778e-22)
(0.413286 -0.01522 -2.468e-22)
(0.555444 -0.0238702 9.70933e-22)
(0.689714 -0.0344274 -1.22993e-21)
(0.873158 -0.0273385 3.4405e-21)
(-0.0267423 0.027108 3.12135e-21)
(-0.0167325 0.0345212 0)
(0.0458857 0.0248431 1.57736e-21)
(0.151303 0.00860265 1.87223e-23)
(0.291082 -0.00752163 4.63011e-22)
(0.453889 -0.0201366 -3.06273e-22)
(0.627685 -0.027447 8.47294e-22)
(0.797905 -0.0301104 0)
(0.960086 -0.0303854 1.22977e-21)
(1.12964 -0.016471 0)
(-0.130427 0.00601179 0)
(-0.137758 0.00585094 1.41263e-22)
(-0.144777 0.0055321 -2.83382e-22)
(-0.151391 0.00520065 1.24376e-22)
(-0.15765 0.00487456 0)
(-0.16356 0.00455175 -1.37325e-22)
(-0.169117 0.00423035 1.38005e-22)
(-0.174317 0.00390932 0)
(-0.179156 0.00358972 0)
(-0.183631 0.00327544 -1.54359e-23)
(-0.187746 0.00297327 0)
(-0.191515 0.00269239 0)
(-0.194964 0.00244576 0)
(-0.198144 0.00224826 0)
(-0.201114 0.00211453 1.76445e-23)
(-0.203944 0.00205476 -1.77359e-23)
(-0.20675 0.00207098 0)
(-0.209821 0.00216008 3.12002e-24)
(-0.213385 0.00231109 -3.13643e-24)
(-0.216309 0.00245646 0)
(-0.107384 0.0165384 0)
(-0.113309 0.0160978 -3.49938e-23)
(-0.1189 0.0152653 0)
(-0.124139 0.0144188 -5.47611e-22)
(-0.129194 0.0135832 5.32124e-22)
(-0.134074 0.0127528 -3.5494e-23)
(-0.138768 0.0119219 2.71045e-22)
(-0.143267 0.0110864 -5.69596e-22)
(-0.147562 0.0102475 4.84406e-22)
(-0.151645 0.00941497 -2.70662e-22)
(-0.15551 0.00860696 -2.26525e-22)
(-0.159155 0.00784293 4.09271e-22)
(-0.162588 0.00716144 -2.10821e-22)
(-0.165834 0.00660553 -1.08063e-22)
(-0.168928 0.00621979 8.50893e-23)
(-0.171912 0.00603939 -1.73407e-23)
(-0.174867 0.00607679 -1.37785e-23)
(-0.178049 0.0063242 -1.33915e-23)
(-0.181757 0.00675406 1.34563e-23)
(-0.184951 0.00719526 -7.4662e-25)
(-0.0630403 0.0229387 3.35234e-23)
(-0.0665323 0.0222115 3.50549e-23)
(-0.0694506 0.0211723 3.64189e-23)
(-0.0720736 0.0201701 0)
(-0.0747815 0.0191829 6.48835e-22)
(-0.0775889 0.0182027 -5.05812e-22)
(-0.0804733 0.0172145 0)
(-0.0834237 0.0162075 6.99695e-23)
(-0.0864294 0.0151802 3.29838e-23)
(-0.089479 0.0141436 -4.37894e-22)
(-0.0925713 0.013129 3.05087e-23)
(-0.0956885 0.012123 5.34532e-22)
(-0.0988057 0.0112012 2.77653e-23)
(-0.10192 0.0104272 2.32276e-23)
(-0.10503 0.00987185 2.22854e-23)
(-0.108136 0.00960085 -4.70617e-23)
(-0.111255 0.0096509 4.47297e-23)
(-0.114572 0.0100221 4.89772e-23)
(-0.118457 0.0106952 8.96827e-24)
(-0.122095 0.0114736 -1.35688e-24)
(0.00191439 0.0225149 1.06426e-21)
(0.00083832 0.0222902 6.17313e-23)
(0.00135148 0.0215045 -8.89488e-24)
(0.00205125 0.0206506 -1.19799e-21)
(0.00243042 0.0198998 -1.15831e-22)
(0.0024599 0.019192 -3.69364e-23)
(0.0021633 0.0184661 1.11244e-21)
(0.00155913 0.0177066 -6.47903e-22)
(0.000656153 0.0169128 -5.84082e-22)
(-0.000529113 0.0160885 5.81458e-22)
(-0.00207167 0.0152338 -3.05402e-23)
(-0.00394519 0.0143799 -6.10085e-22)
(-0.00605798 0.0135827 -2.75343e-23)
(-0.00842696 0.0129 -2.53405e-22)
(-0.0110346 0.0124116 1.75895e-22)
(-0.0138497 0.0122062 1.4393e-22)
(-0.0168306 0.0123531 -1.24354e-22)
(-0.0200406 0.0128739 0)
(-0.0238542 0.0137514 -2.08977e-23)
(-0.0279872 0.014806 -9.98587e-25)
(0.0907539 0.015144 -2.56088e-21)
(0.093355 0.0163166 1.13101e-21)
(0.0957041 0.0158008 -1.20603e-21)
(0.0991511 0.0152673 0)
(0.102475 0.0150368 7.8758e-23)
(0.105255 0.0148975 1.30787e-21)
(0.107559 0.0147236 6.62175e-23)
(0.10946 0.0145067 -2.40837e-23)
(0.110956 0.0142601 -1.27779e-21)
(0.112016 0.0139796 -7.26946e-23)
(0.112601 0.0136494 0)
(0.112699 0.0133378 6.53929e-23)
(0.112317 0.0130549 0)
(0.111452 0.0128461 5.53569e-23)
(0.110114 0.0127799 0)
(0.10833 0.0129441 0)
(0.106154 0.0134257 -3.45559e-23)
(0.103604 0.0142743 4.45233e-23)
(0.100377 0.0154657 -4.02298e-23)
(0.0963063 0.0168985 1.05409e-23)
(0.216157 0.00325313 0)
(0.220478 0.00571909 7.34617e-23)
(0.222809 0.00555661 2.71377e-21)
(0.227156 0.0054109 -2.62292e-21)
(0.231931 0.00577124 9.26312e-23)
(0.236157 0.00625318 0)
(0.23991 0.00666158 1.43101e-21)
(0.243362 0.00701689 -2.75179e-21)
(0.246514 0.00736725 1.5077e-21)
(0.249294 0.00772451 9.06774e-23)
(0.251642 0.00808577 8.75716e-23)
(0.253516 0.00846922 8.35224e-23)
(0.254884 0.00889446 0)
(0.255717 0.00939591 -4.39013e-22)
(0.255997 0.0100219 1.03043e-21)
(0.255715 0.010842 -4.53302e-22)
(0.254902 0.0119285 4.77709e-23)
(0.253579 0.0133658 3.65087e-23)
(0.251693 0.0151237 -1.35433e-23)
(0.248335 0.017328 1.3611e-23)
(0.391875 -0.00937041 -3.20397e-21)
(0.395568 -0.00550941 0)
(0.395244 -0.00543624 8.60779e-23)
(0.397797 -0.00536626 -1.87003e-22)
(0.4017 -0.0046797 -1.91992e-22)
(0.4053 -0.00389684 -1.00915e-22)
(0.408571 -0.00321389 -1.02409e-22)
(0.411789 -0.00253458 1.47294e-21)
(0.414963 -0.00178139 -1.75762e-21)
(0.417972 -0.000963077 -1.68761e-21)
(0.420719 -7.93689e-05 1.40777e-21)
(0.42314 0.000883443 -1.75608e-22)
(0.42519 0.00194126 6.3701e-22)
(0.426818 0.00311677 -1.2374e-22)
(0.428 0.00444323 -7.20448e-22)
(0.428688 0.00597616 -6.51484e-23)
(0.428934 0.00773828 7.78691e-23)
(0.428621 0.00985987 -8.63198e-23)
(0.428168 0.0122171 -1.55052e-22)
(0.425941 0.0154575 -9.25045e-24)
(0.620677 -0.0170553 0)
(0.621527 -0.0134203 2.50299e-21)
(0.617273 -0.0142656 -2.57843e-21)
(0.616151 -0.0144957 9.64289e-23)
(0.617344 -0.0137276 2.05356e-22)
(0.618807 -0.0128984 1.00826e-22)
(0.620206 -0.0122071 2.12447e-22)
(0.621756 -0.0114536 0)
(0.623403 -0.0105541 1.01414e-22)
(0.625002 -0.00948704 9.92349e-23)
(0.626485 -0.00826089 1.06278e-22)
(0.627782 -0.00687199 1.93754e-22)
(0.62886 -0.00533637 0)
(0.629666 -0.00367717 0)
(0.630235 -0.00184568 7.25635e-23)
(0.630441 0.000228463 6.36492e-22)
(0.630502 0.00247568 -4.45848e-22)
(0.629994 0.00514043 4.62483e-23)
(0.629952 0.00773231 9.53672e-23)
(0.628216 0.0118773 -2.91546e-23)
(0.881241 -0.0147617 -3.57043e-21)
(0.879639 -0.0132775 0)
(0.874391 -0.0162903 0)
(0.871797 -0.0173352 3.46592e-21)
(0.871061 -0.017148 1.81538e-23)
(0.870407 -0.0170733 -7.17447e-21)
(0.86959 -0.0170201 3.49878e-21)
(0.868811 -0.0166497 0)
(0.868076 -0.01591 0)
(0.867252 -0.0148795 0)
(0.866288 -0.0136285 -4.76127e-23)
(0.865138 -0.0121521 -1.5528e-22)
(0.863812 -0.0104712 -1.52565e-21)
(0.862299 -0.00847348 1.46703e-21)
(0.860847 -0.00628435 -6.298e-22)
(0.859123 -0.00381434 5.5568e-22)
(0.857691 -0.00133108 0)
(0.855637 0.00169194 -2.03634e-23)
(0.854768 0.00411274 -2.92406e-23)
(0.85208 0.00862985 0)
(1.14422 -0.0115493 3.86752e-23)
(1.14689 -0.0171094 2.72412e-21)
(1.14562 -0.0208435 -2.69579e-21)
(1.14417 -0.0209233 0)
(1.14182 -0.0202655 -3.72912e-21)
(1.13844 -0.0197582 7.56573e-21)
(1.13459 -0.0190549 -3.83545e-21)
(1.13058 -0.0180025 0)
(1.12641 -0.0167105 -1.95739e-21)
(1.12208 -0.0152785 3.853e-21)
(1.11772 -0.0137168 -1.95259e-21)
(1.11338 -0.0119884 5.40178e-23)
(1.10929 -0.0101058 0)
(1.10518 -0.00795429 1.55296e-21)
(1.10134 -0.00574256 -2.15985e-21)
(1.09729 -0.0032264 6.61928e-22)
(1.09408 -0.000870167 4.55861e-22)
(1.09019 0.00218227 -3.12916e-22)
(1.08828 0.004181 -1.60913e-22)
(1.08427 0.00828948 0)
(1.42336 -0.00377113 0)
(1.40802 -0.00780243 0)
(1.39614 -0.0100858 0)
(1.38504 -0.0112209 0)
(1.37452 -0.0118795 0)
(1.36495 -0.0121752 0)
(1.35645 -0.0120768 0)
(1.34879 -0.0116356 0)
(1.34178 -0.0109256 0)
(1.33522 -0.00994163 0)
(1.32915 -0.00872394 0)
(1.32339 -0.0072526 0)
(1.31812 -0.00563946 0)
(1.31299 -0.00383767 0)
(1.30848 -0.00203947 0)
(1.30379 0.000127638 0)
(1.30023 0.00205986 0)
(1.29579 0.00479626 0)
(1.29363 0.00639309 0)
(1.28904 0.00996781 0)
(1.55496 0.00554194 0)
(1.54784 0.00431529 0)
(1.54129 0.0023611 0)
(1.53489 0.000148022 0)
(1.52842 -0.00167585 0)
(1.52206 -0.00285972 0)
(1.51603 -0.00350881 0)
(1.5103 -0.00373344 0)
(1.50488 -0.003607 0)
(1.49968 -0.00313236 0)
(1.4948 -0.0023753 0)
(1.49008 -0.00131968 0)
(1.48578 -9.85265e-05 0)
(1.48147 0.00140213 0)
(1.47773 0.00289631 0)
(1.47375 0.00477542 0)
(1.47085 0.00634156 0)
(1.46702 0.00862846 0)
(1.46529 0.00986278 0)
(1.46118 0.0127224 0)
(1.65363 0.00991748 0)
(1.64991 0.00722812 0)
(1.646 0.00523626 0)
(1.64227 0.00340367 0)
(1.63877 0.00186462 0)
(1.63541 0.000823675 0)
(1.63214 0.00024034 0)
(1.62897 3.87772e-05 0)
(1.62595 0.00014136 0)
(1.62304 0.000544007 0)
(1.6203 0.00118419 0)
(1.61765 0.00210017 0)
(1.61524 0.00314948 0)
(1.61285 0.00447196 0)
(1.61083 0.00579206 0)
(1.60869 0.0074988 0)
(1.60721 0.00887628 0)
(1.60524 0.010925 0)
(1.60445 0.0119778 0)
(1.60245 0.0144538 0)
(1.73749 0.0140388 0)
(1.73602 0.0107239 0)
(1.73362 0.00830902 0)
(1.7312 0.00632363 0)
(1.72913 0.00468831 0)
(1.72735 0.00345317 0)
(1.72571 0.00265289 0)
(1.72419 0.00225923 0)
(1.72277 0.00219264 0)
(1.7215 0.00244209 0)
(1.72035 0.0029221 0)
(1.71935 0.00368701 0)
(1.71848 0.00458127 0)
(1.71777 0.0057721 0)
(1.7172 0.00692818 0)
(1.71681 0.00847894 0)
(1.71653 0.0096769 0)
(1.71651 0.0115541 0)
(1.71648 0.012447 0)
(1.71685 0.0147291 0)
(1.81602 0.0166034 0)
(1.81592 0.0128498 0)
(1.81463 0.00999609 0)
(1.81311 0.00777812 0)
(1.81186 0.00600949 0)
(1.81096 0.00465195 0)
(1.81021 0.00370225 0)
(1.80959 0.00315965 0)
(1.80904 0.00294725 0)
(1.80867 0.00306213 0)
(1.80837 0.00339691 0)
(1.80832 0.00402644 0)
(1.80828 0.00476301 0)
(1.8086 0.0058129 0)
(1.8088 0.00679354 0)
(1.80955 0.00819608 0)
(1.80992 0.00921294 0)
(1.81122 0.0109425 0)
(1.81159 0.0116886 0)
(1.8136 0.0138276 0)
(1.89576 0.0177864 0)
(1.89632 0.0138638 0)
(1.89574 0.0107991 0)
(1.89477 0.00844484 0)
(1.89394 0.00659666 0)
(1.89342 0.00516771 0)
(1.89305 0.00411743 0)
(1.89284 0.00345704 0)
(1.89264 0.00311145 0)
(1.89265 0.0030965 0)
(1.89267 0.00328469 0)
(1.89301 0.00377287 0)
(1.89327 0.00434348 0)
(1.89403 0.00524176 0)
(1.89449 0.00604313 0)
(1.89575 0.00728789 0)
(1.89632 0.00812749 0)
(1.89822 0.00969815 0)
(1.89868 0.0103106 0)
(1.90145 0.0122838 0)
(1.97887 0.018208 0)
(1.97969 0.0143771 0)
(1.97944 0.011294 0)
(1.97871 0.00888142 0)
(1.97799 0.00697798 0)
(1.97753 0.00549521 0)
(1.97721 0.00436694 0)
(1.97706 0.00360709 0)
(1.97689 0.00313868 0)
(1.97695 0.00299639 0)
(1.97697 0.00304025 0)
(1.97736 0.0033845 0)
(1.9776 0.00379221 0)
(1.97841 0.00453162 0)
(1.97883 0.00515948 0)
(1.98017 0.00623367 0)
(1.98068 0.00690797 0)
(1.98268 0.00829752 0)
(1.98308 0.00879112 0)
(1.98596 0.0105599 0)
(2.06361 0.0184159 0)
(2.06448 0.014789 0)
(2.06436 0.0117679 0)
(2.06372 0.00933939 0)
(2.06299 0.00739644 0)
(2.06248 0.00586856 0)
(2.06207 0.00467589 0)
(2.06186 0.00382992 0)
(2.06159 0.00325084 0)
(2.06157 0.00298594 0)
(2.06146 0.00289282 0)
(2.06177 0.00309313 0)
(2.06186 0.00334654 0)
(2.06258 0.00392262 0)
(2.06285 0.00438837 0)
(2.06408 0.00528184 0)
(2.06445 0.00580602 0)
(2.06632 0.00699588 0)
(2.06661 0.00738575 0)
(2.0693 0.00892051 0)
(2.14608 0.0185817 0)
(2.14701 0.0151673 0)
(2.14703 0.0122328 0)
(2.14654 0.00981857 0)
(2.14589 0.00785957 0)
(2.14542 0.00630202 0)
(2.14501 0.00506066 0)
(2.14479 0.00414247 0)
(2.1445 0.00346772 0)
(2.14447 0.0030884 0)
(2.1443 0.00286922 0)
(2.14457 0.00292853 0)
(2.14458 0.00303881 0)
(2.14525 0.00345097 0)
(2.14542 0.0037677 0)
(2.14659 0.00447575 0)
(2.14685 0.0048647 0)
(2.14862 0.00584517 0)
(2.14884 0.00614427 0)
(2.15137 0.00743039 0)
(2.22242 0.0185347 0)
(2.22361 0.0153238 0)
(2.22399 0.0124941 0)
(2.22389 0.0101269 0)
(2.22359 0.00818417 0)
(2.22342 0.00662144 0)
(2.22324 0.00535274 0)
(2.22326 0.00438053 0)
(2.22316 0.00362926 0)
(2.22333 0.00314966 0)
(2.22332 0.00282014 0)
(2.22376 0.00274795 0)
(2.22389 0.00272978 0)
(2.22471 0.00298494 0)
(2.22496 0.00316776 0)
(2.22625 0.00369511 0)
(2.22655 0.00396359 0)
(2.22843 0.00473732 0)
(2.22866 0.00495668 0)
(2.23127 0.00599657 0)
(2.29108 0.0179003 0)
(2.29286 0.0149072 0)
(2.29394 0.0122138 0)
(2.2946 0.00993436 0)
(2.295 0.00804748 0)
(2.29547 0.00651297 0)
(2.29585 0.00524626 0)
(2.29642 0.00424691 0)
(2.29682 0.00344592 0)
(2.2975 0.00289036 0)
(2.29792 0.00247429 0)
(2.29882 0.00229159 0)
(2.2993 0.00216643 0)
(2.30054 0.00228402 0)
(2.30108 0.00235289 0)
(2.30277 0.0027184 0)
(2.30327 0.00288352 0)
(2.30554 0.00346977 0)
(2.30588 0.00362056 0)
(2.30891 0.00443661 0)
(2.3549 0.0162519 0)
(2.35756 0.0135181 0)
(2.35965 0.0110124 0)
(2.36138 0.00887326 0)
(2.36277 0.0070904 0)
(2.36417 0.00562795 0)
(2.36539 0.00440303 0)
(2.36677 0.00341578 0)
(2.3679 0.00260306 0)
(2.36933 0.00200979 0)
(2.3704 0.00154202 0)
(2.37197 0.00128494 0)
(2.37301 0.001084 0)
(2.37487 0.00109934 0)
(2.37585 0.00108179 0)
(2.37812 0.00132151 0)
(2.37895 0.00140534 0)
(2.3818 0.00184241 0)
(2.38232 0.00193794 0)
(2.38596 0.0025739 0)
(2.42183 0.0133217 0)
(2.42538 0.0109063 0)
(2.42851 0.00865823 0)
(2.43132 0.00672467 0)
(2.43373 0.00510191 0)
(2.43609 0.00376459 0)
(2.43817 0.00263139 0)
(2.44037 0.00170767 0)
(2.44225 0.000929633 0)
(2.44441 0.000349654 0)
(2.44613 -0.000124444 0)
(2.44836 -0.000406279 0)
(2.44994 -0.000642411 0)
(2.45237 -0.00068037 0)
(2.45379 -0.000749664 0)
(2.45658 -0.000586159 0)
(2.45773 -0.000557087 0)
(2.46107 -0.000216786 0)
(2.46177 -0.00016134 0)
(2.46593 0.000353563 0)
(2.50236 0.00928983 0)
(2.50637 0.00724728 0)
(2.5101 0.00532614 0)
(2.51357 0.00366139 0)
(2.51661 0.00225173 0)
(2.51951 0.00108833 0)
(2.52208 9.47976e-05 0)
(2.52471 -0.000713061 0)
(2.527 -0.00140588 0)
(2.52952 -0.00192061 0)
(2.53156 -0.00235569 0)
(2.53408 -0.00261203 0)
(2.5359 -0.0028428 0)
(2.53854 -0.00288465 0)
(2.54013 -0.00297102 0)
(2.54306 -0.00283389 0)
(2.54432 -0.00283291 0)
(2.54773 -0.00253743 0)
(2.54847 -0.00250657 0)
(2.55263 -0.00205576 0)
(2.60356 0.00491425 0)
(2.60721 0.00326777 0)
(2.61071 0.00170997 0)
(2.614 0.000349676 0)
(2.61688 -0.000817759 0)
(2.61958 -0.00177882 0)
(2.62194 -0.00260539 0)
(2.62431 -0.00326716 0)
(2.62634 -0.00384315 0)
(2.62856 -0.00425996 0)
(2.63034 -0.00462659 0)
(2.6325 -0.00482535 0)
(2.63405 -0.00502359 0)
(2.63627 -0.00503756 0)
(2.63758 -0.00511671 0)
(2.64 -0.00497401 0)
(2.64102 -0.0049815 0)
(2.64379 -0.00469851 0)
(2.64439 -0.00468028 0)
(2.64775 -0.00425907 0)
(2.72248 0.00124208 0)
(2.72499 -3.07027e-05 0)
(2.72744 -0.00123478 0)
(2.72975 -0.0022968 0)
(2.7317 -0.00322748 0)
(2.73344 -0.00399074 0)
(2.73489 -0.00465345 0)
(2.73629 -0.00517178 0)
(2.73745 -0.00563164 0)
(2.73868 -0.00594895 0)
(2.73963 -0.006242 0)
(2.74078 -0.00637979 0)
(2.74155 -0.00653852 0)
(2.7427 -0.00652089 0)
(2.74333 -0.00658491 0)
(2.74457 -0.00643362 0)
(2.74504 -0.00644191 0)
(2.74648 -0.0061696 0)
(2.74675 -0.00615839 0)
(2.7485 -0.00576595 0)
(2.84535 -0.00101804 0)
(2.84643 -0.00196724 0)
(2.84752 -0.00286048 0)
(2.84847 -0.00365656 0)
(2.84914 -0.00437145 0)
(2.84957 -0.00495806 0)
(2.84979 -0.00547359 0)
(2.84988 -0.00586742 0)
(2.84985 -0.00622393 0)
(2.84976 -0.00645841 0)
(2.8496 -0.00668653 0)
(2.84939 -0.00677874 0)
(2.84914 -0.00690331 0)
(2.84887 -0.00687017 0)
(2.8486 -0.0069217 0)
(2.8483 -0.0067797 0)
(2.84807 -0.00678882 0)
(2.84778 -0.00654769 0)
(2.84763 -0.00654179 0)
(2.84733 -0.00620206 0)
(2.95447 -0.00185703 0)
(2.95434 -0.00252689 0)
(2.95423 -0.00315072 0)
(2.95394 -0.00370659 0)
(2.95346 -0.00421466 0)
(2.95267 -0.00463182 0)
(2.95176 -0.00500297 0)
(2.95062 -0.00528146 0)
(2.94949 -0.00553819 0)
(2.94814 -0.00570081 0)
(2.94692 -0.00586624 0)
(2.94541 -0.00592555 0)
(2.94419 -0.00601718 0)
(2.94254 -0.00598424 0)
(2.94142 -0.00602348 0)
(2.93962 -0.00590989 0)
(2.93872 -0.00591872 0)
(2.93674 -0.00573148 0)
(2.9362 -0.00572904 0)
(2.93391 -0.00546851 0)
(3.03555 -0.00153684 0)
(3.03456 -0.00196859 0)
(3.0336 -0.00235689 0)
(3.03241 -0.0026947 0)
(3.03109 -0.00300251 0)
(3.02939 -0.00325379 0)
(3.02765 -0.00347807 0)
(3.02558 -0.00364402 0)
(3.02364 -0.00379817 0)
(3.02133 -0.00389346 0)
(3.01934 -0.0039928 0)
(3.01682 -0.00402572 0)
(3.01489 -0.00408071 0)
(3.01217 -0.0040575 0)
(3.01042 -0.00408079 0)
(3.00746 -0.00400839 0)
(3.00607 -0.00401328 0)
(3.00277 -0.00389576 0)
(3.00196 -0.00389394 0)
(2.99812 -0.00373093 0)
(3.07889 -0.000426081 0)
(3.07743 -0.000611174 0)
(3.07601 -0.000770212 0)
(3.07433 -0.000903814 0)
(3.07253 -0.00102236 0)
(3.07034 -0.00111846 0)
(3.06815 -0.00120298 0)
(3.06557 -0.00126579 0)
(3.06319 -0.00132313 0)
(3.06035 -0.00135957 0)
(3.05795 -0.00139647 0)
(3.05488 -0.00141043 0)
(3.05256 -0.00143105 0)
(3.04926 -0.00142514 0)
(3.04718 -0.00143413 0)
(3.04359 -0.0014111 0)
(3.04193 -0.00141322 0)
(3.03792 -0.00137465 0)
(3.03695 -0.00137412 0)
(3.03228 -0.00131984 0)
(1.80849 0.117539 1.51909e-21)
(1.81515 0.104687 0)
(1.81132 0.0911244 -2.23085e-22)
(1.79868 0.0772572 -6.63172e-21)
(1.77588 0.0632041 8.73052e-21)
(1.747 0.0500808 0)
(1.70757 0.0363652 5.34556e-21)
(1.65611 0.0264344 0)
(1.60911 0.0113248 3.69062e-21)
(1.44578 -0.00125431 -5.59244e-23)
(1.87067 0.108184 -1.79881e-21)
(1.87525 0.0972444 3.22064e-22)
(1.8702 0.0854683 -3.22713e-22)
(1.85589 0.0744755 -1.15719e-21)
(1.83448 0.0622013 -6.24672e-21)
(1.80168 0.0524463 -3.40258e-22)
(1.77464 0.040173 0)
(1.71008 0.0320367 -6.96069e-21)
(1.70502 0.0230706 0)
(1.56174 0.00745871 -4.09443e-21)
(1.93861 0.0988296 3.73182e-21)
(1.9402 0.0895243 0)
(1.93583 0.0788564 -2.97453e-22)
(1.9173 0.0698101 -7.96987e-22)
(1.90074 0.0590897 6.59533e-21)
(1.8591 0.0511193 0)
(1.84484 0.0419805 1.03643e-20)
(1.76869 0.0331353 7.2005e-21)
(1.77471 0.0289153 0)
(1.65694 0.0145884 4.05239e-21)
(2.00876 0.0907532 -1.70349e-21)
(2.0071 0.0826124 6.7681e-21)
(2.00565 0.073268 0)
(1.98255 0.0652333 9.18166e-21)
(1.97219 0.0564853 4.67652e-22)
(1.92364 0.0484743 -8.60059e-22)
(1.91544 0.0422349 -9.89439e-21)
(1.83747 0.0323692 -3.25555e-22)
(1.83736 0.0295871 -9.01469e-21)
(1.73791 0.0188274 0)
(2.07768 0.0837954 0)
(2.07349 0.0764015 -6.60836e-21)
(2.07551 0.0686565 -7.24261e-21)
(2.05014 0.0609933 9.80628e-22)
(2.04437 0.0542462 -6.18945e-22)
(1.99481 0.0458732 -4.47811e-22)
(1.98667 0.0412274 -1.33048e-20)
(1.91366 0.0318691 -7.04063e-22)
(1.90595 0.0287536 -1.18137e-21)
(1.81498 0.0212113 8.4527e-21)
(2.14214 0.0775268 2.2457e-21)
(2.13695 0.0706719 4.49493e-22)
(2.14164 0.064411 -1.24324e-21)
(2.1172 0.0570726 3.89524e-22)
(2.11406 0.0517459 -1.04321e-20)
(2.06831 0.0437756 0)
(2.0594 0.0396299 1.45317e-20)
(1.99286 0.0319078 -4.29955e-22)
(1.9825 0.0281231 2.2153e-20)
(1.89438 0.0223317 -1.81099e-20)
(2.19964 0.0715522 -2.25675e-21)
(2.19498 0.0652856 -4.12524e-21)
(2.20156 0.0601227 6.91499e-21)
(2.18019 0.0534452 -1.20192e-20)
(2.17926 0.0489019 -1.49039e-21)
(2.13915 0.0420409 -9.73329e-21)
(2.13197 0.0379589 4.7626e-22)
(2.07126 0.0318037 -8.87588e-22)
(2.0628 0.0276332 -1.12774e-20)
(1.97751 0.022602 9.64539e-21)
(2.24919 0.065515 0)
(2.24592 0.0599861 8.9425e-21)
(2.25418 0.0555894 -9.37234e-22)
(2.23646 0.0498652 6.48682e-21)
(2.23841 0.0458118 -6.92482e-22)
(2.20381 0.0402048 1.95651e-20)
(2.20072 0.0362578 -8.64106e-21)
(2.14582 0.0311511 0)
(2.14148 0.0270782 0)
(2.06232 0.0225102 0)
(2.2919 0.0591645 0)
(2.29021 0.0544393 -8.25833e-21)
(2.30014 0.0506672 -5.18371e-22)
(2.28564 0.0459447 6.75315e-21)
(2.29069 0.0423957 1.19403e-20)
(2.26102 0.0378467 -1.10626e-20)
(2.26243 0.0343164 1.04037e-20)
(2.21433 0.0299731 -5.55446e-22)
(2.21415 0.0263873 0)
(2.14481 0.0223389 6.67412e-21)
(2.33152 0.0523302 3.00777e-22)
(2.33128 0.0483602 4.7178e-21)
(2.34239 0.0451902 7.23817e-21)
(2.33043 0.0413544 -3.77834e-22)
(2.33754 0.0384091 8.50827e-22)
(2.31224 0.0347265 -1.23055e-20)
(2.31659 0.0318316 1.16485e-20)
(2.276 0.02826 -5.90421e-22)
(2.27848 0.0252964 0)
(2.22095 0.0219726 -1.37777e-20)
(2.37455 0.0449719 0)
(2.37551 0.0416659 4.73081e-21)
(2.38672 0.0390657 2.2861e-22)
(2.37652 0.0359832 0)
(2.38372 0.0336421 0)
(2.36194 0.0307496 1.09212e-20)
(2.36657 0.0284893 -9.66102e-21)
(2.33278 0.0257989 -5.58795e-22)
(2.33572 0.0233741 3.03563e-22)
(2.28909 0.0210171 7.34357e-21)
(2.42924 0.0370595 0)
(2.43088 0.0344103 -9.02724e-21)
(2.44092 0.0323108 -9.63465e-21)
(2.43161 0.0299157 1.4337e-21)
(2.43692 0.0280435 -9.14246e-22)
(2.41721 0.0259253 -7.37092e-22)
(2.41973 0.0241049 1.3845e-21)
(2.39025 0.0223519 8.79048e-21)
(2.39178 0.0202877 8.36941e-22)
(2.35211 0.0190227 -2.55997e-22)
(2.50282 0.0290132 0)
(2.50432 0.0270082 4.8691e-21)
(2.51236 0.025275 -5.28601e-22)
(2.5029 0.0235086 5.24236e-22)
(2.50541 0.0218928 0)
(2.48595 0.0204761 0)
(2.48543 0.0188458 0)
(2.45684 0.0179187 -9.97756e-21)
(2.45634 0.0160501 9.30583e-21)
(2.4182 0.0157237 0)
(2.59743 0.0216536 0)
(2.59784 0.0201756 3.11906e-21)
(2.60387 0.0186574 3.97663e-21)
(2.59347 0.0173826 5.09673e-21)
(2.59382 0.0158579 -9.63677e-22)
(2.57332 0.0149339 5.86917e-21)
(2.57072 0.0133442 -5.20568e-21)
(2.54057 0.0129145 0)
(2.53877 0.0111662 6.13482e-22)
(2.49832 0.0113187 -8.78015e-21)
(2.70708 0.0156202 -7.02997e-22)
(2.70589 0.0145002 -2.5325e-21)
(2.71066 0.0131472 -5.14176e-21)
(2.69936 0.0121586 -3.58629e-21)
(2.69919 0.0107171 0)
(2.67793 0.0099855 -7.45894e-21)
(2.67526 0.00846611 7.47657e-21)
(2.64389 0.00810243 -7.06333e-22)
(2.64214 0.00651337 -4.6079e-21)
(2.59993 0.00658697 1.27852e-20)
(2.81864 0.0111944 7.06605e-22)
(2.81633 0.0102525 -1.97895e-21)
(2.82071 0.00911202 1.74844e-21)
(2.80975 0.00821051 -4.27354e-21)
(2.81045 0.00696625 0)
(2.79053 0.00618049 0)
(2.78931 0.00486942 7.37505e-22)
(2.76003 0.00427265 -6.93919e-21)
(2.7592 0.00293106 -4.21961e-21)
(2.72003 0.00259443 -4.31763e-21)
(2.91787 0.00802329 0)
(2.91578 0.00717399 3.23936e-21)
(2.92019 0.00632517 -1.17225e-21)
(2.91142 0.00543991 3.81587e-21)
(2.9133 0.00451021 1.01676e-21)
(2.89754 0.00362151 -8.37526e-22)
(2.89789 0.00262818 1.56889e-21)
(2.87484 0.00178914 4.80224e-21)
(2.87482 0.000747409 0)
(2.84434 4.29546e-05 0)
(2.9966 0.00535898 0)
(2.99587 0.00468263 1.32888e-21)
(3.00003 0.00418427 -2.40404e-21)
(2.99475 0.00341938 0)
(2.9971 0.00284812 -1.97881e-21)
(2.98716 0.00200591 -8.49152e-22)
(2.98817 0.0013508 -2.3624e-21)
(2.97359 0.000478456 -6.80287e-22)
(2.97372 -0.000264261 3.56191e-22)
(2.95464 -0.00107652 2.94561e-22)
(3.05306 0.00282525 0)
(3.05364 0.00247675 -1.33523e-21)
(3.05692 0.00233254 -1.1943e-21)
(3.05486 0.00187689 1.63453e-21)
(3.05676 0.00164477 9.43205e-22)
(3.05215 0.00107622 8.95449e-22)
(3.05286 0.000732671 3.95092e-21)
(3.0459 8.80882e-05 -2.86421e-21)
(3.04559 -0.000372158 6.63676e-22)
(3.03656 -0.0010198 0)
(3.08416 0.000637039 0)
(3.08528 0.000639729 6.50612e-22)
(3.08763 0.000725503 -6.19471e-22)
(3.08732 0.000664037 5.8245e-22)
(3.08855 0.000680729 0)
(3.08697 0.000532825 -8.99863e-22)
(3.08714 0.000459627 7.75249e-22)
(3.08453 0.000235225 6.83074e-22)
(3.08372 6.99793e-05 0)
(3.08039 -0.000201013 0)
(1.13161 0.226023 0)
(1.06946 0.246679 -5.37497e-20)
(1.02023 0.274853 0)
(0.980384 0.311547 -1.77882e-19)
(0.94562 0.356337 6.74859e-20)
(0.913455 0.41087 2.22252e-21)
(0.880569 0.475346 5.91746e-20)
(0.829162 0.538243 -6.93721e-21)
(0.702319 0.546298 0)
(0.389468 0.335145 6.20388e-20)
(1.22374 0.228359 9.8187e-20)
(1.1627 0.255154 5.37486e-20)
(1.11306 0.282004 -5.1027e-20)
(1.0716 0.317511 5.99371e-20)
(1.03645 0.362282 -5.12295e-20)
(1.00635 0.41687 7.31652e-21)
(0.97729 0.480933 -6.0586e-20)
(0.928475 0.54223 -1.20792e-19)
(0.793842 0.546949 -3.20584e-20)
(0.44094 0.330499 -9.07467e-20)
(1.31098 0.226702 -4.33647e-20)
(1.25389 0.255776 4.49011e-20)
(1.20503 0.28201 5.10255e-20)
(1.1621 0.316687 5.22897e-20)
(1.12625 0.360977 5.34186e-20)
(1.09785 0.41475 5.41507e-20)
(1.07206 0.477053 8.72918e-21)
(1.02468 0.534692 5.26476e-20)
(0.880436 0.534186 2.07475e-20)
(0.486608 0.315784 -2.21475e-20)