/*--------------------------------*- C++ -*----------------------------------*\
| =========                 |                                                 |
| \\      /  F ield         | OpenFOAM: The Open Source CFD Toolbox           |
|  \\    /   O peration     | Version:  4.1                                   |
|   \\  /    A nd           | Web:      www.OpenFOAM.org                      |
|    \\/     M anipulation  |                                                 |
\*---------------------------------------------------------------------------*/
FoamFile
{
    version     2.0;
    format      ascii;
    class       volScalarField;
    location    "9.2";
    object      p;
}
// * * * * * * * * * * * * * * * * * * * * * * * * * * * * * * * * * * * * * //

dimensions      [0 2 -2 0 0 0 0];

internalField   nonuniform List<scalar> 
2000
(
-0.190079
-0.179778
-0.169393
-0.15993
-0.152411
-0.146738
-0.141914
-0.138581
-0.133755
-0.134435
-0.210841
-0.196738
-0.183829
-0.172243
-0.162363
-0.153727
-0.145666
-0.137963
-0.1297
-0.123709
-0.237038
-0.218263
-0.202472
-0.188193
-0.174715
-0.161611
-0.148652
-0.135962
-0.123286
-0.111518
-0.268903
-0.244611
-0.225462
-0.207214
-0.188174
-0.16879
-0.149786
-0.131722
-0.114378
-0.0994136
-0.306237
-0.27543
-0.252096
-0.227619
-0.20062
-0.173394
-0.147662
-0.124032
-0.102638
-0.0841404
-0.347106
-0.309455
-0.280111
-0.246418
-0.209347
-0.173384
-0.140736
-0.111835
-0.0864861
-0.0646621
-0.388327
-0.344283
-0.305651
-0.259838
-0.211549
-0.166799
-0.127595
-0.0937972
-0.0647872
-0.0396494
-0.425072
-0.375786
-0.324208
-0.264288
-0.204772
-0.151917
-0.106861
-0.0687518
-0.0363248
-0.00806434
-0.452101
-0.398286
-0.331483
-0.256918
-0.18707
-0.127226
-0.0772758
-0.0355812
-0.000246227
0.0305341
-0.4648
-0.406202
-0.323567
-0.235552
-0.156983
-0.0915281
-0.0377585
0.00666322
0.0441591
0.076485
-0.100188
-0.106742
-0.110267
-0.113774
-0.117733
-0.12193
-0.126194
-0.130421
-0.134651
-0.13911
-0.103582
-0.10959
-0.112888
-0.116301
-0.1202
-0.124348
-0.128554
-0.132658
-0.13665
-0.14108
-0.109788
-0.114712
-0.117564
-0.120702
-0.124374
-0.128311
-0.132296
-0.136096
-0.139553
-0.143614
-0.117753
-0.121233
-0.123351
-0.125916
-0.129067
-0.132508
-0.135988
-0.139268
-0.141919
-0.144507
-0.12642
-0.12829
-0.129342
-0.130949
-0.133207
-0.135815
-0.138475
-0.141015
-0.142702
-0.142996
-0.135055
-0.1353
-0.134951
-0.135178
-0.136174
-0.137683
-0.139354
-0.140931
-0.141821
-0.138844
-0.143463
-0.142075
-0.140065
-0.13856
-0.137969
-0.138201
-0.138826
-0.139407
-0.140689
-0.132932
-0.152074
-0.148995
-0.145098
-0.141604
-0.139265
-0.138151
-0.13782
-0.137288
-0.139789
-0.128642
-0.161864
-0.156867
-0.150928
-0.145392
-0.141298
-0.138897
-0.137627
-0.136311
-0.138466
-0.128588
-0.174101
-0.166775
-0.158683
-0.15115
-0.145426
-0.141642
-0.13897
-0.137333
-0.136669
-0.133225
-0.143872
-0.148338
-0.152706
-0.156852
-0.160622
-0.163838
-0.166289
-0.167727
-0.167867
-0.166386
-0.162911
-0.157021
-0.148317
-0.136587
-0.121805
-0.103918
-0.0825135
-0.0566806
-0.0277093
-0.00528672
-0.14674
-0.151325
-0.155821
-0.160161
-0.164165
-0.16766
-0.170435
-0.172237
-0.172777
-0.171721
-0.168696
-0.163281
-0.155044
-0.143641
-0.129025
-0.111056
-0.0894247
-0.0634257
-0.0338103
-0.00809713
-0.150936
-0.155696
-0.160389
-0.165085
-0.169513
-0.173485
-0.176793
-0.179195
-0.180397
-0.180046
-0.177748
-0.173064
-0.165523
-0.154677
-0.140413
-0.122413
-0.100403
-0.073952
-0.0432389
-0.0125451
-0.154742
-0.159331
-0.164239
-0.16938
-0.174337
-0.178902
-0.182853
-0.185927
-0.187842
-0.188263
-0.186748
-0.182826
-0.175989
-0.165757
-0.151842
-0.133859
-0.111455
-0.084336
-0.0523137
-0.0166512
-0.155511
-0.161295
-0.16618
-0.171593
-0.177092
-0.182272
-0.186863
-0.190598
-0.19318
-0.194271
-0.193427
-0.190114
-0.183808
-0.174069
-0.160352
-0.142346
-0.119598
-0.0916974
-0.0584347
-0.0196777
-0.153992
-0.161567
-0.16625
-0.171569
-0.17747
-0.183213
-0.188338
-0.192589
-0.195693
-0.197298
-0.196936
-0.194004
-0.187912
-0.178497
-0.164896
-0.146788
-0.123748
-0.095249
-0.061302
-0.0210842
-0.151045
-0.160855
-0.165121
-0.169863
-0.175918
-0.182076
-0.187537
-0.19206
-0.19544
-0.197328
-0.197197
-0.194448
-0.188766
-0.1792
-0.165572
-0.147336
-0.124135
-0.0953708
-0.0613909
-0.0212547
-0.14807
-0.159599
-0.163088
-0.166926
-0.172931
-0.179206
-0.18468
-0.18919
-0.192603
-0.194499
-0.194342
-0.191633
-0.185715
-0.17617
-0.162532
-0.144269
-0.121174
-0.0927189
-0.0593754
-0.0206217
-0.146505
-0.15712
-0.159005
-0.162116
-0.167928
-0.173902
-0.179177
-0.183371
-0.18658
-0.188308
-0.187972
-0.185091
-0.179131
-0.169586
-0.156023
-0.138056
-0.115484
-0.0880587
-0.0560509
-0.0196228
-0.149354
-0.153573
-0.153664
-0.156939
-0.16123
-0.165408
-0.16961
-0.173748
-0.176609
-0.177768
-0.177023
-0.173984
-0.168025
-0.158717
-0.145606
-0.128492
-0.107079
-0.0815237
-0.0517444
-0.0184923
-0.135108
-0.13897
-0.14454
-0.149126
-0.1538
-0.157581
-0.16125
-0.164452
-0.166463
-0.166952
-0.165555
-0.16189
-0.155453
-0.145971
-0.133026
-0.11662
-0.0964323
-0.0729506
-0.0458802
-0.016502
-0.128855
-0.135805
-0.140724
-0.143732
-0.145264
-0.147818
-0.150764
-0.153172
-0.15439
-0.154075
-0.15188
-0.147571
-0.140745
-0.131259
-0.118726
-0.103305
-0.0846587
-0.0634779
-0.0393561
-0.0139473
-0.115776
-0.125922
-0.130255
-0.131687
-0.133506
-0.135938
-0.138464
-0.140346
-0.140979
-0.140082
-0.137391
-0.132785
-0.125934
-0.116785
-0.104997
-0.090821
-0.0739373
-0.0551257
-0.0339673
-0.0121299
-0.100789
-0.113241
-0.118459
-0.120404
-0.121601
-0.123639
-0.125813
-0.127334
-0.127606
-0.126396
-0.1235
-0.118871
-0.112239
-0.103624
-0.0927292
-0.0798589
-0.0647191
-0.0480955
-0.0295531
-0.010601
-0.0852301
-0.0989028
-0.10528
-0.107587
-0.109079
-0.111051
-0.113107
-0.114506
-0.114667
-0.113387
-0.110509
-0.106047
-0.0997926
-0.0918163
-0.0818663
-0.0702693
-0.056756
-0.0420753
-0.0257881
-0.00925809
-0.0692706
-0.0837153
-0.0912991
-0.0944955
-0.0964695
-0.0985952
-0.100692
-0.102124
-0.102339
-0.101155
-0.0984517
-0.0942904
-0.0885139
-0.0812333
-0.0722331
-0.0618472
-0.0498254
-0.0368703
-0.0225537
-0.00811228
-0.0534963
-0.0685067
-0.0771901
-0.0814013
-0.084001
-0.0864298
-0.0886857
-0.0902566
-0.0906398
-0.0896761
-0.0872647
-0.0835022
-0.0782715
-0.0717153
-0.0636468
-0.054402
-0.0437437
-0.0323333
-0.0197521
-0.00712953
-0.0384728
-0.0537401
-0.0632936
-0.0684696
-0.0717713
-0.0746135
-0.0771275
-0.0789246
-0.079564
-0.0789097
-0.0768745
-0.0735785
-0.068934
-0.0631102
-0.0559419
-0.0477672
-0.0383552
-0.0283358
-0.0172922
-0.00627358
-0.0243376
-0.0395855
-0.0497693
-0.0558429
-0.0598854
-0.0632228
-0.0660723
-0.0681613
-0.0691169
-0.0688304
-0.0672245
-0.0644356
-0.0603959
-0.0552973
-0.0489894
-0.0418144
-0.0335422
-0.0247808
-0.0151086
-0.00552064
-0.0110793
-0.0261638
-0.0368367
-0.0437052
-0.048481
-0.0523519
-0.0555843
-0.0580074
-0.0593154
-0.0594303
-0.0582821
-0.0560192
-0.0525862
-0.0481934
-0.0427003
-0.036455
-0.0292241
-0.0216025
-0.0131591
-0.00485448
0.00124461
-0.0136086
-0.0246509
-0.0322179
-0.0376861
-0.0420947
-0.0457322
-0.0485117
-0.0501901
-0.0507204
-0.0500391
-0.0483033
-0.045464
-0.0417472
-0.0370177
-0.0316313
-0.0253485
-0.0187581
-0.0114163
-0.00426362
0.0125218
-0.00204455
-0.0133453
-0.0215096
-0.027613
-0.0325437
-0.0365897
-0.0397318
-0.0417828
-0.0427266
-0.0425051
-0.0412823
-0.0390113
-0.035931
-0.0319085
-0.0273082
-0.0218829
-0.0162205
-0.0098629
-0.0037403
0.0226731
0.00844293
-0.00302044
-0.0116892
-0.0183667
-0.0237906
-0.0282336
-0.0317299
-0.0341423
-0.035484
-0.0357018
-0.034965
-0.0332257
-0.0307337
-0.0273563
-0.0234664
-0.018809
-0.0139739
-0.00848866
-0.0032795
0.031658
0.017788
0.00623434
-0.00285667
-0.0100456
-0.015924
-0.0207398
-0.0245698
-0.0273205
-0.0290331
-0.0296582
-0.0293691
-0.0281156
-0.026156
-0.0233562
-0.0200977
-0.0161179
-0.0120098
-0.00728816
-0.00287805
0.039445
0.0259312
0.0143349
0.004893
-0.00274196
-0.00902641
-0.0141796
-0.0183126
-0.0213693
-0.0234158
-0.0244066
-0.0245179
-0.0236957
-0.0222052
-0.0199107
-0.017201
-0.0138069
-0.0103249
-0.00625908
-0.00253411
0.0459981
0.0328172
0.0212082
0.0114786
0.00346499
-0.00316978
-0.00861677
-0.0130137
-0.0163363
-0.0186723
-0.0199791
-0.0204352
-0.0199826
-0.0188921
-0.0170257
-0.0147788
-0.0118765
-0.00891853
-0.00540074
-0.00224682
0.0512799
0.0383905
0.0267891
0.0168326
0.00851002
0.0015857
-0.00410464
-0.00871974
-0.0122618
-0.0148365
-0.0164035
-0.0171424
-0.0169921
-0.0162271
-0.014708
-0.0128347
-0.0103286
-0.00779134
-0.00471315
-0.00201599
0.0552731
0.0426028
0.0310098
0.0208876
0.012332
0.00518718
-0.000688425
-0.00546998
-0.00917994
-0.0119373
-0.0137033
-0.0146582
-0.014738
-0.0142202
-0.0129641
-0.011373
-0.00916563
-0.0069447
-0.0041972
-0.00184219
0.0580292
0.045478
0.0338555
0.023608
0.0148897
0.00759813
0.00160083
-0.00329145
-0.00711453
-0.00999507
-0.0118953
-0.0129955
-0.0132306
-0.0128785
-0.0117993
-0.0103962
-0.00838983
-0.0063789
-0.00385499
-0.00172476
0.0595915
0.0470882
0.0354074
0.0250205
0.0161889
0.00881834
0.00275846
-0.00219026
-0.00607292
-0.00901564
-0.0109862
-0.0121584
-0.0124749
-0.0122031
-0.0112173
-0.00990316
-0.00800484
-0.00608984
-0.00368981
-0.0016574
0.102319
0.0561992
0.0164597
-0.0170489
-0.0445477
-0.0668026
-0.0848306
-0.100338
-0.112923
-0.13356
0.123572
0.0785168
0.0393403
0.00546177
-0.0230721
-0.0477967
-0.0678135
-0.0879462
-0.10131
-0.12283
0.142603
0.0991287
0.0612133
0.0275555
-0.00102822
-0.0274607
-0.0482504
-0.070519
-0.0837158
-0.103726
0.159548
0.117638
0.0809563
0.0475748
0.0192963
-0.0077714
-0.0284869
-0.0506687
-0.0649052
-0.0849063
0.174588
0.134066
0.0984317
0.0654297
0.0375317
0.0105703
-0.0102676
-0.0322818
-0.0484699
-0.0684789
0.187931
0.148694
0.114
0.0815673
0.0540092
0.027377
0.00601065
-0.0160166
-0.0332991
-0.0526534
0.199807
0.161805
0.127989
0.0962489
0.068967
0.0427153
0.0209678
-0.000734582
-0.0181093
-0.0369033
0.21042
0.173597
0.140601
0.10959
0.0825997
0.0568331
0.0351087
0.0139282
-0.00334674
-0.0219104
0.219929
0.184204
0.151975
0.121692
0.095071
0.0698577
0.0483514
0.0275724
0.0103011
-0.00801401
0.228452
0.19373
0.162224
0.132649
0.106447
0.0817564
0.0604715
0.0399914
0.0227694
0.00488689
0.236073
0.202258
0.17143
0.14252
0.116739
0.0925136
0.0714426
0.0512927
0.0342171
0.0168482
0.242853
0.209851
0.179647
0.151348
0.125968
0.102181
0.0813426
0.0615711
0.044661
0.0277776
0.248827
0.216552
0.186912
0.159173
0.13417
0.110809
0.0902045
0.070806
0.054028
0.0375809
0.254017
0.22239
0.193254
0.166026
0.141369
0.118411
0.0980141
0.0789513
0.0622748
0.0462231
0.258431
0.22738
0.198689
0.17192
0.147573
0.124979
0.104758
0.0859894
0.0693949
0.0536891
0.262073
0.231528
0.203226
0.176864
0.152785
0.13051
0.110437
0.0919175
0.0753852
0.0599561
0.264944
0.234839
0.206875
0.180863
0.157015
0.135008
0.115056
0.0967335
0.0802383
0.0650016
0.267055
0.237325
0.209653
0.183935
0.160283
0.138494
0.118638
0.100453
0.0839658
0.06883
0.268387
0.238971
0.211551
0.186083
0.162605
0.140992
0.121217
0.103123
0.0866263
0.0715125
0.268879
0.239677
0.212432
0.18715
0.163818
0.142341
0.122645
0.104623
0.0881382
0.0730284
0.800858
0.803966
0.797692
0.782761
0.760076
0.728833
0.685309
0.623362
0.541565
0.485038
0.73583
0.733053
0.715904
0.691585
0.661067
0.621407
0.567577
0.493128
0.396808
0.328942
0.666312
0.655596
0.629526
0.597564
0.559744
0.511724
0.447898
0.361846
0.252352
0.175101
0.586578
0.569804
0.538445
0.501304
0.457435
0.401893
0.329124
0.233167
0.112307
0.0289774
0.50247
0.480915
0.445963
0.405
0.356191
0.294297
0.213992
0.110496
-0.0192342
-0.102963
0.419267
0.393365
0.355576
0.311595
0.25884
0.191899
0.105536
-0.00364499
-0.134495
-0.217612
0.339441
0.309698
0.269867
0.223744
0.168263
0.0978333
0.00767704
-0.104426
-0.230989
-0.312124
0.264322
0.231583
0.190793
0.143524
0.0868145
0.014564
-0.076675
-0.187889
-0.307576
-0.384314
0.194855
0.160378
0.120124
0.0729792
0.015465
-0.056305
-0.145733
-0.252521
-0.362559
-0.433247
0.130733
0.0976265
0.0586032
0.0123381
-0.0440611
-0.113548
-0.198716
-0.297695
-0.395159
-0.459461
1.18631
1.20518
1.22635
1.24984
1.27561
1.30337
1.33232
1.36017
1.38421
1.41131
1.18164
1.19946
1.21981
1.24243
1.26711
1.29353
1.32084
1.34669
1.36831
1.39368
1.17194
1.18768
1.20642
1.22733
1.24987
1.27364
1.29768
1.3195
1.3365
1.35817
1.15658
1.16924
1.18564
1.20405
1.22346
1.24332
1.26256
1.27845
1.28865
1.30482
1.13473
1.14341
1.15681
1.17202
1.18738
1.20219
1.2152
1.22337
1.22468
1.23368
1.10551
1.10931
1.11913
1.13052
1.14106
1.14982
1.15533
1.1542
1.14468
1.14507
1.06819
1.06648
1.07234
1.07944
1.0844
1.08615
1.08303
1.0712
1.04909
1.03967
1.02119
1.01336
1.01548
1.01829
1.01727
1.01133
0.998709
0.975088
0.938942
0.918743
0.964488
0.950804
0.949882
0.94792
0.940093
0.925837
0.903145
0.867045
0.815945
0.784023
0.890727
0.878229
0.876861
0.869633
0.854275
0.831252
0.798057
0.749008
0.682489
0.638226
1.00252
1.00759
1.01334
1.01953
1.02583
1.0322
1.03872
1.04549
1.05257
1.06002
1.0679
1.07623
1.08507
1.09451
1.10466
1.11561
1.12746
1.14032
1.15433
1.1696
1.0025
1.0076
1.01334
1.01946
1.02568
1.03198
1.03843
1.04513
1.05213
1.05948
1.06724
1.07543
1.08411
1.09336
1.10328
1.11396
1.12548
1.13794
1.15144
1.16608
1.00252
1.00762
1.01325
1.01924
1.02533
1.0315
1.03782
1.04437
1.0512
1.05836
1.06586
1.07375
1.08209
1.09095
1.1004
1.1105
1.12133
1.13296
1.1454
1.1587
1.00253
1.00759
1.01306
1.01884
1.02473
1.0307
1.03679
1.04308
1.04963
1.0565
1.06361
1.07102
1.07882
1.08705
1.09575
1.10494
1.11467
1.12494
1.13569
1.14686
1.00251
1.00751
1.01275
1.01823
1.02384
1.02952
1.03532
1.0413
1.04747
1.05379
1.0603
1.06706
1.07409
1.08141
1.08901
1.09689
1.10502
1.11334
1.12164
1.12972
1.00245
1.00732
1.01226
1.01735
1.02256
1.02784
1.0332
1.03868
1.04438
1.05003
1.05575
1.06163
1.06763
1.07372
1.07984
1.08593
1.09188
1.09752
1.10254
1.10639
1.00232
1.00697
1.01153
1.01614
1.02087
1.02567
1.03054
1.03553
1.04029
1.04503
1.04981
1.05457
1.05924
1.06372
1.06791
1.07163
1.07472
1.07681
1.07756
1.07591
1.00212
1.0064
1.01048
1.0145
1.01862
1.02296
1.0272
1.03115
1.03499
1.03876
1.04239
1.04575
1.04876
1.05121
1.05302
1.05379
1.05337
1.05093
1.04628
1.03743
1.00176
1.00547
1.00909
1.01263
1.01617
1.01953
1.02278
1.02586
1.02873
1.03131
1.03352
1.03517
1.03614
1.03608
1.03489
1.03191
1.0273
1.01949
1.0091
0.991308
1.00156
1.00435
1.00709
1.00991
1.01269
1.01529
1.01765
1.01969
1.02135
1.02247
1.02299
1.02261
1.02125
1.0183
1.01382
1.00634
0.99643
0.980336
0.961125
0.928643
1.00091
1.00294
1.00498
1.00704
1.00899
1.01064
1.0119
1.01269
1.01293
1.01243
1.0111
1.00853
1.0046
0.998542
0.990324
0.978148
0.962432
0.938465
0.90748
0.854956
1.00058
1.00155
1.00268
1.00401
1.00516
1.00584
1.00598
1.0055
1.00434
1.00229
0.999206
0.99465
0.988525
0.979938
0.968929
0.95363
0.934506
0.907688
0.875159
0.831347
1.00039
1.00017
1.00029
1.00087
1.00122
1.00092
0.999908
0.998152
0.99562
0.992052
0.987339
0.98099
0.972944
0.962297
0.949163
0.931827
0.910959
0.883587
0.852001
0.811512
0.999738
0.998821
0.998264
0.998048
0.997466
0.996083
0.993875
0.990824
0.98692
0.981885
0.975618
0.96761
0.957843
0.945431
0.930591
0.911746
0.88979
0.862011
0.830922
0.791665
0.999298
0.99769
0.996552
0.99556
0.993981
0.991439
0.987981
0.98362
0.978363
0.971913
0.96418
0.954649
0.94335
0.929427
0.913203
0.893181
0.870425
0.842296
0.811556
0.773504
0.998911
0.996627
0.9951
0.993462
0.990869
0.987088
0.982318
0.976633
0.970052
0.962252
0.953148
0.942227
0.929571
0.914358
0.896995
0.876055
0.852701
0.824429
0.794099
0.757324
0.998275
0.995616
0.994186
0.992064
0.988373
0.983195
0.977003
0.969965
0.962091
0.953008
0.942626
0.930437
0.916573
0.900255
0.881947
0.860302
0.836524
0.808294
0.778396
0.742802
0.997584
0.994776
0.993999
0.991612
0.986695
0.979888
0.972115
0.963684
0.954554
0.944263
0.932689
0.919342
0.904398
0.887132
0.868035
0.845859
0.821788
0.79371
0.764222
0.729693
0.996702
0.994031
0.994624
0.992268
0.985966
0.977229
0.967688
0.957828
0.947494
0.936075
0.923391
0.908985
0.893069
0.87499
0.855234
0.832663
0.808389
0.780526
0.75142
0.717869
0.995864
0.993617
0.996323
0.994208
0.986203
0.975163
0.963676
0.952398
0.940942
0.928482
0.914767
0.899391
0.882602
0.863828
0.84352
0.820659
0.796248
0.768638
0.73989
0.707245
0.995238
0.994495
1.00017
0.997938
0.987423
0.973551
0.959986
0.94737
0.934905
0.921497
0.906826
0.890568
0.873002
0.853639
0.832873
0.809807
0.785307
0.757974
0.72956
0.697751
0.994381
0.997848
1.00746
1.00395
0.989586
0.972251
0.95655
0.942742
0.929401
0.915128
0.89957
0.882518
0.864272
0.844422
0.82328
0.800077
0.775526
0.748483
0.720376
0.68933
0.994143
1.00391
1.01741
1.01127
0.991963
0.97088
0.953232
0.938485
0.924416
0.909364
0.892998
0.87525
0.856427
0.836185
0.814738
0.791452
0.766877
0.740125
0.712295
0.681939
0.995246
1.0106
1.02594
1.01639
0.992562
0.968584
0.949697
0.934412
0.919803
0.904096
0.887055
0.868753
0.849471
0.828928
0.807241
0.783915
0.759339
0.73287
0.705287
0.675546
0.996482
1.01479
1.02937
1.01641
0.989774
0.964672
0.945627
0.930243
0.915283
0.899118
0.881627
0.86297
0.843372
0.822623
0.800762
0.777436
0.75288
0.726683
0.699321
0.670122
0.994416
1.01149
1.02556
1.01169
0.984641
0.96017
0.941646
0.926185
0.910882
0.894449
0.876773
0.857969
0.838187
0.817305
0.795322
0.772024
0.747509
0.72156
0.694395
0.665656
0.984751
0.985502
0.996767
0.992291
0.976339
0.956775
0.938926
0.922707
0.90682
0.89027
0.872652
0.853873
0.834008
0.813046
0.790986
0.767723
0.743262
0.71752
0.690531
0.662153
0.998053
0.96784
0.947278
0.950572
0.955562
0.950374
0.936304
0.919633
0.903148
0.886639
0.86926
0.850634
0.83079
0.809817
0.787735
0.764518
0.740122
0.714544
0.687718
0.659602
1.00001
0.970407
0.945883
0.945686
0.950519
0.946276
0.933625
0.917651
0.901227
0.884585
0.867129
0.848506
0.828676
0.807709
0.785619
0.762427
0.738079
0.712607
0.685916
0.657994
0.986857
0.989998
0.995781
0.982529
0.962171
0.945087
0.930955
0.916724
0.901053
0.884128
0.866272
0.847496
0.82765
0.806688
0.784591
0.761403
0.737075
0.711654
0.685045
0.657268
0.793121
0.724583
0.65702
0.583479
0.504972
0.42715
0.35268
0.28199
0.215749
0.155291
0.783893
0.713402
0.642388
0.572975
0.500164
0.427017
0.357226
0.29123
0.229817
0.174141
0.768442
0.701364
0.629835
0.563732
0.497021
0.42886
0.363145
0.301247
0.243833
0.190918
0.751975
0.69004
0.619963
0.555671
0.493711
0.430383
0.36843
0.30993
0.255752
0.205546
0.736275
0.679036
0.611634
0.548867
0.490496
0.431667
0.373368
0.317801
0.266376
0.218515
0.721726
0.668457
0.604366
0.54335
0.487656
0.432676
0.377851
0.324962
0.275874
0.230049
0.708352
0.658428
0.597824
0.538855
0.485284
0.433455
0.381823
0.331451
0.284397
0.240346
0.696133
0.649053
0.59186
0.535148
0.48341
0.434121
0.385305
0.337295
0.292068
0.24958
0.685027
0.640378
0.586393
0.532032
0.481983
0.434755
0.388352
0.342518
0.298966
0.257878
0.674981
0.632407
0.581374
0.529365
0.480931
0.43541
0.391031
0.347156
0.305148
0.26533
0.665945
0.625131
0.576772
0.527048
0.480175
0.436103
0.393404
0.351249
0.310653
0.271997
0.657878
0.618538
0.572568
0.525011
0.479642
0.43683
0.395516
0.354837
0.315512
0.277917
0.650751
0.612625
0.56875
0.523205
0.479269
0.437565
0.397388
0.357953
0.319749
0.283117
0.644543
0.607392
0.565319
0.521597
0.478997
0.438273
0.399026
0.360618
0.323381
0.287612
0.639235
0.602845
0.562285
0.520166
0.478776
0.438908
0.400414
0.362838
0.326419
0.29141
0.634835
0.599017
0.559681
0.518912
0.478566
0.439421
0.401525
0.364608
0.328863
0.294511
0.631378
0.595956
0.557541
0.517827
0.478325
0.439764
0.402331
0.365924
0.33072
0.296917
0.62887
0.593674
0.555854
0.516865
0.477973
0.439856
0.402782
0.366773
0.332002
0.298646
0.627305
0.592175
0.554617
0.515977
0.477411
0.439569
0.402753
0.367054
0.332642
0.299674
0.626665
0.591557
0.554026
0.515395
0.476839
0.439036
0.402304
0.366755
0.332543
0.299841
)
;

boundaryField
{
    bottom
    {
        type            symmetryPlane;
    }
    right
    {
        type            fixedValue;
        value           uniform 0;
    }
    top
    {
        type            symmetryPlane;
    }
    left
    {
        type            fixedValue;
        value           uniform 1;
    }
    cylinder
    {
        type            zeroGradient;
    }
    defaultFaces
    {
        type            empty;
    }
}


// ************************************************************************* //
