/*--------------------------------*- C++ -*----------------------------------*\
| =========                 |                                                 |
| \\      /  F ield         | OpenFOAM: The Open Source CFD Toolbox           |
|  \\    /   O peration     | Version:  4.1                                   |
|   \\  /    A nd           | Web:      www.OpenFOAM.org                      |
|    \\/     M anipulation  |                                                 |
\*---------------------------------------------------------------------------*/
FoamFile
{
    version     2.0;
    format      ascii;
    class       surfaceScalarField;
    location    "11.2";
    object      phi;
}
// * * * * * * * * * * * * * * * * * * * * * * * * * * * * * * * * * * * * * //

dimensions      [0 3 -1 0 0 0 0];

internalField   nonuniform List<scalar> 
3890
(
0.000218863
0.00190273
-0.00212159
0.00184474
0.000736306
-0.00236218
0.00551523
-0.00371257
4.20751e-05
0.0115802
-0.0104613
0.00439633
0.0199888
-0.0185284
0.0101199
0.0302908
-0.026932
0.0166299
0.0417973
-0.034882
0.0233755
0.0539138
-0.0418848
0.0297684
0.0660115
-0.0480664
0.0359686
-0.0521919
0.0407924
0.077411
0.000475524
0.0014272
0.00298346
-0.00177163
0.0081893
-0.00891841
0.0161728
-0.0184449
0.0263439
-0.0286995
0.0377278
-0.0383159
0.0493556
-0.0465098
0.0605344
-0.0530637
0.0705752
-0.0581071
-0.0616138
0.0799971
0.000839452
0.000587753
0.00444491
-0.00537708
0.0112933
-0.0157668
0.0208394
-0.027991
0.0318054
-0.0396654
0.0428767
-0.0493873
0.0531467
-0.0567798
0.0621828
-0.0620998
0.0699678
-0.0658921
-0.068589
0.076943
0.00130384
-0.000716086
0.00613149
-0.0102047
0.0144034
-0.0240387
0.0246796
-0.0382671
0.0351984
-0.0501843
0.044758
-0.0589468
0.0528931
-0.0649149
0.0596978
-0.0689046
0.0655206
-0.0717149
-0.0738658
0.0707974
0.00185085
-0.00256694
0.00785745
-0.0162113
0.0169616
-0.0331429
0.0269173
-0.0482228
0.035996
-0.059263
0.0435166
-0.0664674
0.0495734
-0.0709717
0.0546044
-0.0739356
0.0590714
-0.0761818
-0.0782069
0.0634125
0.00244471
-0.00501164
0.00935604
-0.0231227
0.0184753
-0.0422622
0.0272463
-0.0569937
0.0344463
-0.0664631
0.040004
-0.072025
0.0443796
-0.0753473
0.0481051
-0.0776612
0.0515884
-0.0796651
-0.0816551
0.0550365
0.00301857
-0.00803021
0.0103529
-0.030457
0.0187234
-0.0506326
0.0258548
-0.0641252
0.0311846
-0.0717929
0.0350795
-0.0759198
0.038134
-0.0784018
0.040827
-0.0803541
0.0434319
-0.08227
-0.0842951
0.0460719
0.00348219
-0.0115124
0.0106702
-0.037645
0.0177832
-0.0577456
0.023171
-0.069513
0.02683
-0.075452
0.0293545
-0.0784443
0.031326
-0.0803734
0.0331108
-0.082139
0.0348771
-0.0840363
-0.0860906
0.0366726
0.00374787
-0.0152603
0.0102725
-0.0441696
0.0158992
-0.0633723
0.0196341
-0.0732479
0.021856
-0.0776739
0.0232307
-0.0798191
0.024254
-0.0813966
0.0251806
-0.0830656
0.0260953
-0.0849509
-0.0870104
0.027015
0.00376284
-0.0190231
0.00926766
-0.0496744
0.0133625
-0.0674672
0.015609
-0.0754943
0.0165998
-0.0786647
0.0169728
-0.080192
0.017116
-0.0815399
0.0171939
-0.0831435
0.0172479
-0.0850049
0.0172751
-0.0870376
-0.000631522
0.000631522
-0.00191497
0.00128345
-0.00355188
0.0016369
-0.00538271
0.00183083
-0.00732518
0.00194247
-0.0093449
0.00201972
-0.0114365
0.00209155
-0.0136112
0.00217473
-0.0158933
0.00228215
0.00242899
-0.0183223
-0.00055939
0.00119091
-0.00170616
0.00243022
-0.00316703
0.00309777
-0.0047815
0.00344531
-0.00645965
0.00362062
-0.00815626
0.00371633
-0.00985457
0.00378986
-0.011557
0.00387712
-0.01328
0.00400515
0.00421147
-0.0150624
-0.000433502
0.00162441
-0.00134223
0.00333895
-0.00248705
0.0042426
-0.00371263
0.00467089
-0.00491948
0.00482747
-0.00604475
0.0048416
-0.00705101
0.00479612
-0.0079224
0.00474852
-0.00866125
0.004744
0.00483844
-0.00928822
-0.000288624
0.00191304
-0.000907001
0.00395732
-0.00165645
0.00499205
-0.00239127
0.0054057
-0.00300623
0.00544243
-0.00342235
0.00525772
-0.00357742
0.00495119
-0.00342701
0.00459811
-0.00294762
0.00426461
0.00406369
-0.00217287
-0.000159421
0.00207246
-0.000489668
0.00428757
-0.000824434
0.00532682
-0.00102945
0.00561072
-0.000999099
0.00541208
-0.000644684
0.0049033
0.000114938
0.00419157
0.00135987
0.00335318
0.00316052
0.00246396
0.0016904
0.00553381
-7.06419e-05
0.0021431
-0.000151781
0.00436871
-8.81288e-05
0.00526316
0.000252338
0.00527025
0.000980913
0.0046835
0.00219668
0.00368753
0.00399594
0.00239231
0.00647074
0.000878377
0.00971354
-0.000778842
-0.00258434
0.0139883
-2.96873e-05
0.00217279
9.37688e-05
0.00424525
0.000548502
0.00480843
0.00149148
0.00432728
0.00305977
0.00311521
0.00537872
0.00136858
0.00855782
-0.000786787
0.0126864
-0.00325023
0.0177858
-0.00587818
-0.00919071
0.0243921
-1.89398e-05
0.00219173
0.000298862
0.00392745
0.00120412
0.00390318
0.00291083
0.00262056
0.00561181
0.000414239
0.0094687
-0.00248832
0.0145829
-0.00590094
0.0209686
-0.00963601
0.0285359
-0.0134454
-0.0184098
0.037755
2.95898e-06
0.00218877
0.000577251
0.00335316
0.00209986
0.00238056
0.00487195
-0.000151524
0.00914254
-0.00385635
0.0150443
-0.00839008
0.0225782
-0.0134349
0.0315436
-0.0186014
0.0418297
-0.0237315
-0.0295237
0.0529436
6.71806e-05
0.00105816
0.0034808
0.00772561
0.0139891
0.022229
0.0321696
0.0433366
0.0555737
0.0668424
-0.0199214
0.00159908
-0.0215139
0.0015925
-0.0230699
0.00155603
-0.0245781
0.00150815
-0.0260267
0.00144859
-0.0274026
0.00137592
-0.028692
0.00128936
-0.0298806
0.00118864
-0.0309546
0.00107404
-0.031901
0.00094639
-0.0327082
0.000807176
-0.0333668
0.000658577
-0.0338704
0.000503586
-0.0342165
0.000346157
-0.034408
0.000191438
-0.0344535
4.54884e-05
-0.0343693
-8.4183e-05
-0.0341767
-0.000192558
-0.0338958
-0.000280952
-0.000342789
-0.0164637
0.00300039
-0.0178861
0.0030149
-0.0193011
0.00297099
-0.020699
0.00290601
-0.0220696
0.00281924
-0.0234008
0.0027071
-0.0246789
0.00256743
-0.0258893
0.00239906
-0.027017
0.00220177
-0.028047
0.00197637
-0.0289646
0.00172479
-0.0297564
0.00145034
-0.0304107
0.00115796
-0.0309192
0.000854624
-0.0312778
0.000550011
-0.0314889
0.000256573
-0.0315597
-1.33303e-05
-0.0315125
-0.000239732
-0.0313761
-0.000417436
-0.000533232
-0.0103054
0.00401761
-0.0113757
0.00408521
-0.0124818
0.004077
-0.0136176
0.00404187
-0.0147771
0.00397876
-0.0159513
0.00388122
-0.0171286
0.00374479
-0.0182962
0.00356669
-0.0194398
0.00334531
-0.0205436
0.00308014
-0.0215907
0.00277195
-0.0225636
0.00242319
-0.0234441
0.00203851
-0.0242149
0.00162537
-0.0248602
0.00119531
-0.0253687
0.000765114
-0.025736
0.000353997
-0.0259632
-1.26003e-05
-0.0260897
-0.000290865
-0.000457351
-0.00263623
0.00448097
-0.00321216
0.00466114
-0.0038591
0.00472394
-0.0045715
0.00475428
-0.00535235
0.0047596
-0.00619922
0.00472809
-0.00710551
0.00465108
-0.00806287
0.00452404
-0.00906168
0.00434412
-0.0100905
0.00410898
-0.0111357
0.00381717
-0.0121814
0.00346882
-0.013209
0.00306611
-0.0141975
0.00261386
-0.0151232
0.00212104
-0.0159606
0.00160253
-0.0166863
0.00107971
-0.0172811
0.000582187
-0.0177411
0.000169103
-7.3229e-05
0.00560716
0.00440763
0.00554345
0.00472484
0.00539576
0.00487163
0.00517848
0.00497156
0.00487724
0.00506083
0.00448469
0.00512065
0.00400183
0.00513394
0.00343119
0.00509469
0.00277521
0.0050001
0.0020376
0.00484658
0.00122426
0.00463051
0.000343424
0.00434966
-0.000594317
0.00400385
-0.00157535
0.00359489
-0.00258139
0.00312708
-0.0035881
0.00260924
-0.00456535
0.00205695
-0.00547418
0.00149102
-0.00626649
0.000961414
0.000602438
0.0144413
0.00395461
0.0147407
0.00442543
0.0149746
0.00463767
0.0151659
0.00478029
0.0152897
0.00493701
0.0153319
0.00507852
0.01529
0.00517576
0.0151618
0.00522293
0.0149425
0.00521937
0.0146283
0.00516078
0.0142171
0.00504173
0.0137085
0.00485825
0.0131037
0.00460867
0.0124057
0.00429287
0.0116197
0.0039131
0.010755
0.00347393
0.00982695
0.00298502
0.00886041
0.00245755
0.00790875
0.00191308
0.00144913
0.0248819
0.00346483
0.0252623
0.00404509
0.025633
0.00426688
0.0260126
0.00440071
0.0263636
0.00458606
0.0266728
0.00476933
0.0269386
0.00490996
0.0271538
0.00500772
0.0273075
0.00506562
0.0273901
0.00507817
0.0273935
0.00503831
0.0273109
0.00494085
0.0271361
0.00478349
0.0268643
0.00456466
0.0264908
0.0042866
0.0260135
0.0039513
0.0254288
0.00356968
0.0247408
0.00314558
0.0239461
0.00270781
0.00223634
0.0379205
0.00329931
0.0381186
0.00384703
0.0384162
0.00396921
0.0387693
0.00404767
0.0391333
0.00422206
0.0395117
0.0043909
0.0399032
0.00451851
0.0402938
0.00461709
0.0406687
0.00469067
0.0410162
0.00473077
0.0413248
0.00472965
0.0415844
0.00468125
0.0417841
0.00458377
0.0419155
0.00443329
0.0419674
0.00423465
0.0419344
0.00398431
0.0418003
0.00370383
0.041569
0.00337689
0.0411958
0.00308093
0.00267569
0.0527921
0.00345079
0.0528992
0.00373992
0.0532193
0.00364916
0.0535749
0.00369201
0.0539555
0.00384149
0.0543808
0.00396552
0.0548398
0.00405953
0.0553176
0.00413934
0.0558057
0.00420253
0.0562982
0.00423824
0.0567867
0.00424117
0.0572636
0.00420433
0.0577184
0.00412902
0.0581447
0.004007
0.0585284
0.00385094
0.0588674
0.00364534
0.0591385
0.00343274
0.0593524
0.00316294
0.0594646
0.00296879
0.00265173
0.0671681
0.00312504
0.0679041
0.00300393
0.0685444
0.00300891
0.0691171
0.00311926
0.0697059
0.00325273
0.0703023
0.00336908
0.0708956
0.00346625
0.0714911
0.00354388
0.0720941
0.00359952
0.0727078
0.00362451
0.0733306
0.00361834
0.0739633
0.00357162
0.0745999
0.00349242
0.0752412
0.00336579
0.0758745
0.00321763
0.0765039
0.00301594
0.0771082
0.0028284
0.0776982
0.00257291
0.0782509
0.00241608
0.00213751
0.0925679
0.00404399
-0.0934869
0.0915885
0.00398339
0.0907183
0.00387902
0.0900045
0.00383306
0.0894321
0.00382516
0.0889748
0.00382638
0.088612
0.003829
0.0883317
0.00382424
0.0881227
0.00380851
0.0879764
0.00377079
0.0878806
0.00371412
0.0878278
0.0036245
0.0878037
0.00351646
0.0878029
0.00336662
0.087808
0.00321255
0.0878166
0.00300732
0.0878096
0.00283536
0.0877887
0.00259389
0.0877425
0.00246222
0.00221229
0.10278
0.00411809
-0.102854
0.102579
0.00418417
0.1023
0.00415817
0.10203
0.00410278
0.101796
0.00405964
0.101595
0.00402721
0.101426
0.00399814
0.10129
0.00395995
0.101186
0.00391242
0.101113
0.00384406
0.101064
0.00376313
0.101036
0.0036519
0.101021
0.00353205
0.101015
0.00337241
0.101006
0.00322117
0.100995
0.00301848
0.100968
0.00286238
0.100929
0.00263298
0.10087
0.00252094
0.00228879
0.109741
0.00418126
-0.109805
0.109783
0.00414272
0.109832
0.0041086
0.109885
0.00404991
0.109953
0.00399202
0.110037
0.00394303
0.110134
0.00390116
0.110242
0.00385206
0.110358
0.00379693
0.11048
0.00372203
0.110603
0.00363957
0.110727
0.00352829
0.110843
0.00341545
0.110952
0.00326386
0.111044
0.00312872
0.111121
0.00294191
0.111175
0.00280802
0.111209
0.00259969
0.111222
0.00250721
0.00229542
0.115029
0.00412138
-0.11497
0.115188
0.00398453
0.115389
0.00390756
0.115603
0.00383598
0.115829
0.00376591
0.116071
0.00370119
0.116326
0.00364594
0.116591
0.0035873
0.11686
0.00352793
0.11713
0.00345194
0.117396
0.00337356
0.117655
0.00326933
0.117901
0.00316915
0.118132
0.00303316
0.118342
0.00291812
0.11853
0.00275431
0.118694
0.00264371
0.118831
0.0024629
0.11895
0.00238806
0.0022027
0.119533
0.00392097
-0.119332
0.119771
0.00374613
0.120046
0.00363263
0.12034
0.00354239
0.120644
0.00346108
0.120962
0.00338405
0.121291
0.00331686
0.121629
0.00324889
0.121972
0.00318471
0.122316
0.00310777
0.122657
0.00303273
0.122991
0.00293582
0.123313
0.0028468
0.12362
0.00272659
0.123909
0.00262907
0.124175
0.0024883
0.124421
0.00239735
0.12464
0.00224401
0.124845
0.00218349
0.00202619
0.123909
0.00365169
-0.12364
0.12419
0.0034657
0.124495
0.00332763
0.124818
0.00321891
0.125152
0.00312673
0.125496
0.00304062
0.125848
0.00296444
0.126208
0.00288891
0.126573
0.00282005
0.126939
0.00274206
0.127302
0.00266909
0.12766
0.00257842
0.128009
0.00249786
0.128344
0.00239118
0.128666
0.00230718
0.128968
0.00218627
0.129255
0.0021104
0.129518
0.00198086
0.12977
0.00193134
0.00179876
0.128492
0.00335783
-0.128198
0.128789
0.00316827
0.1291
0.00301661
0.129425
0.00289451
0.129758
0.00279313
0.130099
0.00270029
0.130445
0.00261787
0.130797
0.002537
0.131153
0.00246441
0.131509
0.00238571
0.131864
0.00231416
0.132214
0.0022287
0.132557
0.00215456
0.132889
0.00205896
0.133211
0.0019852
0.133517
0.00188042
0.133812
0.00181591
0.134087
0.00170566
0.134354
0.00166443
0.00155193
0.133347
0.00305112
-0.133041
0.133651
0.00286514
0.133957
0.00270989
0.134271
0.00258099
0.13459
0.00247359
0.134914
0.00237642
0.135242
0.00229034
0.135572
0.0022066
0.135905
0.00213191
0.136237
0.00205336
0.136568
0.00198333
0.136894
0.00190256
0.137215
0.00183369
0.137526
0.00174729
0.13783
0.0016816
0.138121
0.00158982
0.138402
0.00153412
0.138669
0.00143927
0.138929
0.00140438
0.0013081
0.138392
0.0027364
-0.138077
0.138696
0.00256069
0.138997
0.00240911
0.139298
0.00227942
0.139602
0.00216997
0.139907
0.00207141
0.140213
0.00198438
0.140519
0.00190037
0.140825
0.00182568
0.14113
0.00174871
0.141432
0.00168096
0.14173
0.00160498
0.142023
0.00154109
0.142307
0.00146279
0.142585
0.00140399
0.142851
0.00132308
0.143111
0.00127458
0.143358
0.00119236
0.1436
0.00116258
0.00107977
0.143475
0.00241702
-0.143156
0.143781
0.00225474
0.144079
0.00211136
0.144372
0.00198585
0.144664
0.00187857
0.144953
0.00178195
0.145241
0.00169686
0.145526
0.00161525
0.145809
0.00154287
0.146088
0.00146927
0.146364
0.00140508
0.146634
0.00133455
0.146899
0.00127593
0.147157
0.0012054
0.147408
0.00115302
0.147649
0.00108183
0.147884
0.00103964
0.148108
0.000968431
0.148328
0.000943003
0.000872024
0.148439
0.0020918
-0.148114
0.14875
0.00194446
0.149049
0.00181241
0.149339
0.00169521
0.149624
0.00159408
0.149903
0.00150281
0.150177
0.00142258
0.150447
0.00134599
0.150711
0.00127827
0.15097
0.00121002
0.151225
0.0011509
0.151472
0.00108691
0.151714
0.00103423
0.151948
0.000971758
0.152175
0.000925804
0.152393
0.000863981
0.152604
0.000827716
0.152806
0.000766796
0.153004
0.000745301
0.000685389
0.153161
0.00175845
-0.152828
0.153478
0.00162795
0.15378
0.00150993
0.154071
0.00140438
0.154352
0.00131281
0.154625
0.00123003
0.15489
0.00115736
0.155148
0.00108826
0.155399
0.00102737
0.155643
0.000966412
0.15588
0.000913925
0.156109
0.000857729
0.156331
0.000811851
0.156545
0.000758065
0.156752
0.000718816
0.156949
0.000666524
0.157141
0.000636068
0.157322
0.000585347
0.1575
0.000567559
0.000518553
0.157584
0.00142042
-0.157246
0.157903
0.00130885
0.158206
0.00120714
0.158495
0.00111573
0.158771
0.00103626
0.159037
0.000964429
0.159293
0.000901509
0.159539
0.000841921
0.159777
0.000789606
0.160006
0.000737559
0.160227
0.000692979
0.160439
0.000645709
0.160643
0.000607365
0.160838
0.000562922
0.161027
0.000530654
0.161205
0.000488199
0.161377
0.000463516
0.16154
0.000423102
0.161698
0.000408866
0.000370783
0.161715
0.00109142
-0.161386
0.162024
0.000999938
0.162315
0.000915776
0.162591
0.000839812
0.162854
0.000773786
0.163104
0.00071429
0.163343
0.000662373
0.163572
0.000613456
0.16379
0.000570686
0.164
0.00052844
0.1642
0.000492424
0.164391
0.000454645
0.164574
0.000424129
0.164748
0.000389265
0.164915
0.000363965
0.165072
0.000331331
0.165223
0.000312222
0.165364
0.000281932
0.165502
0.000271029
0.000243541
0.16556
0.000793051
-0.165262
0.165839
0.000721001
0.166101
0.000654086
0.166347
0.00059345
0.16658
0.000540847
0.166801
0.000493735
0.16701
0.00045286
0.167209
0.000414623
0.167398
0.000381335
0.167578
0.000348768
0.167749
0.000321112
0.167911
0.000292524
0.168066
0.000269464
0.168212
0.000243667
0.168351
0.000224835
0.168481
0.000201319
0.168606
0.000187275
0.168722
0.000166235
0.168834
0.000158301
0.000140318
0.169044
0.000544185
-0.168795
0.169275
0.00048938
0.169491
0.000438141
0.169693
0.000391606
0.169882
0.000351378
0.17006
0.000315663
0.170228
0.000284889
0.170387
0.000256379
0.170536
0.000231665
0.170677
0.000207795
0.170811
0.000187581
0.170936
0.000167105
0.171055
0.000150556
0.171166
0.000132599
0.171272
0.000119308
0.17137
0.000103515
0.171463
9.37404e-05
0.171549
8.03586e-05
0.171632
7.48966e-05
6.45455e-05
0.172007
0.000350457
-0.171813
0.172186
0.000310485
0.172351
0.000273096
0.172503
0.000239225
0.172645
0.000210126
0.172776
0.000184551
0.172898
0.000162663
0.173012
0.000142607
0.173118
0.000125285
0.173217
0.000108811
0.17331
9.48811e-05
0.173396
8.11198e-05
0.173476
6.99425e-05
0.173551
5.82824e-05
0.173621
4.94685e-05
0.173684
3.96697e-05
0.173745
3.32807e-05
0.1738
2.5604e-05
0.173852
2.20807e-05
1.70738e-05
0.174306
0.000204874
-0.174161
0.174439
0.000178016
0.174559
0.000153145
0.174667
0.000130997
0.174765
0.000112157
0.174854
9.57389e-05
0.174935
8.17556e-05
0.175008
6.90624e-05
0.175075
5.81336e-05
0.175136
4.78947e-05
0.175192
3.92471e-05
0.175242
3.09197e-05
0.175288
2.41139e-05
0.175329
1.73104e-05
0.175366
1.20434e-05
0.175399
6.58942e-06
0.17543
2.81959e-06
0.175456
-1.02762e-06
0.175482
-3.07325e-06
-4.94711e-06
0.175872
9.51873e-05
-0.175762
0.17597
7.99538e-05
0.176056
6.70468e-05
0.176131
5.61064e-05
0.176196
4.69711e-05
0.176253
3.90401e-05
0.176302
3.22741e-05
0.176345
2.61344e-05
0.176382
2.08566e-05
0.176414
1.59631e-05
0.176442
1.18512e-05
0.176465
7.96394e-06
0.176484
4.78183e-06
0.1765
1.69744e-06
0.176512
-6.91246e-07
0.176522
-3.11723e-06
0.17653
-4.81243e-06
0.176535
-6.33037e-06
0.176539
-7.2304e-06
-7.67781e-06
0.176669
-0.176574
0.176749
0.176816
0.176872
0.176919
0.176958
0.17699
0.177016
0.177037
0.177053
0.177065
0.177073
0.177078
0.177079
0.177079
0.177076
0.177071
0.177065
0.177057
0.0904882
0.016043
-0.0892561
0.0917888
0.0257144
0.0931806
0.0352808
0.0946145
0.0446381
0.0961373
0.0535137
0.0976007
0.0619491
0.0987782
0.0696199
0.099688
0.0760332
0.0971014
0.0825837
0.0810256
0.0929695
0.0149158
-0.0918424
0.0942075
0.0244764
0.0955979
0.0338904
0.0971048
0.0431312
0.0986864
0.0519321
0.100506
0.0601297
0.101927
0.0681984
0.104029
0.073932
0.104468
0.0821446
0.0826395
0.0957268
0.0138885
-0.0946994
0.0969163
0.0232869
0.0982619
0.0325448
0.0998382
0.0415549
0.101429
0.0503408
0.103467
0.0580917
0.10522
0.0664459
0.107443
0.0717088
0.109546
0.0800419
0.0823808
0.0986644
0.0129368
-0.0977127
0.0998433
0.022108
0.101171
0.0312172
0.102807
0.0399189
0.104474
0.0486733
0.106528
0.0560378
0.108609
0.0643651
0.110659
0.0696586
0.113355
0.0773461
0.0807662
0.101711
0.0120325
-0.100806
0.1029
0.0209191
0.104271
0.0298456
0.105952
0.0382377
0.107774
0.0468519
0.10979
0.0540216
0.11211
0.0620457
0.114203
0.0675649
0.11699
0.0745598
0.0784235
0.104803
0.0111473
-0.103918
0.106008
0.0197141
0.107471
0.0283823
0.10921
0.0364992
0.111218
0.0448437
0.11331
0.0519293
0.115809
0.059547
0.118157
0.0652174
0.120953
0.0717638
0.0757361
0.107873
0.0102613
-0.106987
0.109104
0.018483
0.110678
0.0268083
0.112519
0.034658
0.114718
0.0426455
0.117019
0.049628
0.119695
0.0568705
0.122356
0.0625569
0.125276
0.068844
0.0728138
0.110859
0.00936605
-0.109963
0.112133
0.0172089
0.113818
0.0251227
0.115809
0.0326673
0.118197
0.0402575
0.120771
0.0470543
0.123668
0.0539731
0.126653
0.059572
0.129843
0.0656541
0.069616
0.113718
0.00846145
-0.112813
0.115049
0.0158782
0.11684
0.0233309
0.119002
0.0305057
0.121585
0.0376747
0.124441
0.0441979
0.127619
0.0507954
0.130952
0.0562387
0.134518
0.062088
0.0660576
0.116442
0.00755169
-0.115532
0.117831
0.0144891
0.119721
0.0214409
0.122048
0.0281784
0.124829
0.0348934
0.127959
0.0410682
0.131456
0.0472987
0.13516
0.0525346
0.139157
0.058091
0.0620588
0.119054
0.00664386
-0.118146
0.120491
0.0130518
0.122467
0.0194648
0.124939
0.0257067
0.127911
0.0319215
0.131293
0.0376857
0.135109
0.0434827
0.139185
0.0484585
0.143625
0.0536518
0.0575691
0.121608
0.00574891
-0.120713
0.123076
0.0115834
0.125121
0.0174201
0.127709
0.0231179
0.130849
0.0287818
0.134454
0.0340813
0.138557
0.0393792
0.142983
0.0440325
0.147839
0.0487953
0.0525805
0.12416
0.00487708
-0.123289
0.125638
0.0101057
0.127731
0.0153277
0.13041
0.0204383
0.133688
0.0255043
0.137481
0.0302882
0.141827
0.0350326
0.146566
0.0392935
0.151791
0.0435703
0.0471256
0.126722
0.00405443
-0.125899
0.128192
0.00863607
0.130314
0.0132052
0.133066
0.0176871
0.136455
0.0221147
0.140411
0.0263324
0.144962
0.0304811
0.149976
0.0342796
0.155519
0.038028
0.0412581
0.129207
0.00329103
-0.128444
0.130659
0.00718366
0.132803
0.0110611
0.135618
0.0148721
0.139107
0.0186258
0.143212
0.0222277
0.147947
0.0257466
0.153208
0.0290186
0.159031
0.0322044
0.0350275
0.131441
0.00258049
-0.130731
0.132881
0.00574389
0.135049
0.00889319
0.137928
0.0119932
0.141513
0.0150406
0.14576
0.017981
0.150666
0.0208397
0.156155
0.0235298
0.162238
0.026122
0.0284705
0.133269
0.00190388
-0.132593
0.134708
0.00430529
0.136905
0.00669595
0.139847
0.00905131
0.143523
0.0113645
0.147899
0.013605
0.152963
0.0157761
0.158655
0.0178376
0.164968
0.0198086
0.0216255
0.134651
0.00124804
-0.133996
0.136093
0.00286346
0.138317
0.00447224
0.14131
0.00605786
0.145061
0.00761424
0.14954
0.00912534
0.15473
0.0105864
0.160585
0.0119824
0.167084
0.0133097
0.014549
0.135622
0.0006151
-0.134989
0.137059
0.0014263
0.139296
0.00223613
0.142319
0.00303408
0.146117
0.00381702
0.150664
0.00457807
0.155937
0.00531294
0.161902
0.00601755
0.168526
0.00668537
0.00731335
0.136153
-0.135538
0.137579
0.139815
0.142849
0.146666
0.151244
0.156557
0.162575
0.16926
0.0426544
0.0532314
-0.0472757
-0.0486101
0.0366924
0.0521093
-0.0461474
0.0310905
0.0514307
-0.0458287
0.0257637
0.0512896
-0.0459629
0.0206074
0.0516034
-0.0464471
0.0155628
0.0523661
-0.0473215
0.0106212
0.053462
-0.0485204
0.0059183
0.0537457
-0.0490428
0.0019723
0.0488671
-0.0449211
0.0281399
-0.0261676
0.0404752
0.0590904
-0.0463342
0.0347229
0.0578616
0.0292191
0.0569345
0.0240017
0.0565071
0.0190024
0.0566027
0.0141505
0.057218
0.00944394
0.0581686
0.0050598
0.0581298
0.00155143
0.0523755
0.0296913
0.0374372
0.0645883
-0.0429351
0.0319931
0.0633058
0.0267223
0.0622053
0.0217044
0.061525
0.0169227
0.0613844
0.0123269
0.0618139
0.00793546
0.06256
0.00397517
0.0620901
0.00102615
0.0553245
0.0307175
0.033359
0.0696896
-0.0384602
0.0283464
0.0683184
0.0234619
0.0670898
0.0187829
0.0662039
0.0143268
0.0658405
0.0100756
0.0660651
0.00608735
0.0665482
0.00266198
0.0655155
0.000392455
0.057594
0.0311099
0.0283283
0.0743297
-0.0329683
0.0238112
0.0728354
0.0194208
0.0714802
0.0152054
0.0704193
0.0111899
0.069856
0.00738695
0.069868
0.00390038
0.0700348
0.00110234
0.0683135
-0.000302764
0.0589991
0.0308072
0.0223699
0.0783979
-0.0264381
0.0184437
0.0767616
0.0146447
0.0752792
0.0109966
0.0740674
0.00752522
0.0733274
0.00427583
0.0731174
0.00141919
0.0728914
-0.000615499
0.0703482
-0.00101339
0.059397
0.0297938
0.015599
0.0817766
-0.0189777
0.0123466
0.080014
0.00921488
0.0784108
0.00621706
0.0770653
0.00337957
0.0761649
0.000780388
0.0757166
-0.0013189
0.0749907
-0.00235167
0.071381
-0.00174142
0.0587867
0.0280524
0.0081157
0.0843646
-0.0107037
0.00560239
0.0825274
0.00322003
0.0807932
0.000950047
0.0793352
-0.0011871
0.0783021
-0.00304372
0.0775732
-0.00426303
0.07621
-0.00422746
0.0713454
-0.00244475
0.057004
0.0256076
-2.61528e-05
0.0862189
-0.00182818
-0.00167347
0.0841747
-0.00325221
0.0823719
-0.00475862
0.0808416
-0.00611895
0.0796624
-0.0071341
0.0785884
-0.00735123
0.0764271
-0.00609312
0.0700873
-0.00306223
0.0539731
0.0225454
-0.00846801
0.0076493
-0.00929824
-0.0100698
-0.010768
-0.0112977
-0.0113739
-0.0104411
-0.00782103
-0.00352228
0.0351221
0.00333052
-0.0384527
0.0316628
0.0034593
0.0280543
0.00360852
0.0242755
0.00377885
0.0202975
0.00397794
0.0160846
0.00421297
0.0116107
0.00447384
0.00695289
0.00465784
0.0025852
0.00436769
0.0025852
0.0356625
0.00678764
-0.0391196
0.0320918
0.00703001
0.0283869
0.00731344
0.0245264
0.0076393
0.0204811
0.00802325
0.0162139
0.00848017
0.0116959
0.00899184
0.00700073
0.00935304
0.00260947
0.00875895
0.00519467
0.0366811
0.0104851
-0.0403786
0.0328988
0.0108124
0.0290104
0.0112018
0.0249943
0.0116555
0.0208199
0.0121976
0.0164488
0.0128513
0.0118496
0.0135911
0.00709105
0.0141115
0.00264479
0.0132052
0.00783947
0.0380585
0.0145094
-0.0420828
0.0339871
0.0148838
0.0298476
0.0153413
0.0256179
0.0158852
0.0212668
0.0165487
0.0167539
0.0173642
0.0120446
0.0183004
0.00720146
0.0189547
0.00268791
0.0177188
0.0105274
0.0396313
0.0189127
-0.0440345
0.0352226
0.0192925
0.0307889
0.0197749
0.0263096
0.0203645
0.021753
0.0211053
0.0170764
0.0220407
0.0122419
0.0231349
0.00730636
0.0238902
0.00272586
0.0222993
0.0132532
0.0412144
0.0237042
-0.046006
0.036454
0.0240529
0.0317099
0.024519
0.0269673
0.0251071
0.0221958
0.0258768
0.0173511
0.0268854
0.0123924
0.0280936
0.007373
0.0289096
0.00274317
0.0269291
0.0159964
0.0425907
0.02887
-0.0477565
0.037487
0.0291566
0.0324505
0.0295555
0.0274688
0.0300888
0.0225036
0.030842
0.0175083
0.0318807
0.0124442
0.0331577
0.00736634
0.0339875
0.00272336
0.0315721
0.0187198
0.0436565
0.0343726
-0.049159
0.038215
0.0345981
0.0329077
0.0348628
0.0277165
0.03528
0.0225895
0.035969
0.0174775
0.0369926
0.0123445
0.0382907
0.00725132
0.0390807
0.00265026
0.0361732
0.02137
0.0439932
0.0403231
-0.0499437
0.0382942
0.0402971
0.0328592
0.0402978
0.0275595
0.0405797
0.0223409
0.0411877
0.0171742
0.0421593
0.0120328
0.0434322
0.00698993
0.0441236
0.00250832
0.0406548
0.0238783
0.0437491
-0.0507017
0.0378988
0.0323679
0.0269847
0.0217253
0.016563
0.0114748
0.00655559
0.00228927
0.0422045
-0.000121381
0.0423248
-0.000120295
0.0424424
-0.000117631
0.0425526
-0.000110238
0.0426513
-9.86692e-05
0.0427344
-8.31029e-05
0.0427975
-6.31014e-05
0.0428353
-3.78078e-05
0.0428403
-4.96221e-06
0.0428127
2.76175e-05
0.0427454
6.72943e-05
0.04263
0.000115341
0.0424574
0.000172627
0.0422169
0.000240529
0.041896
0.00032087
0.0414801
0.000415889
0.0409517
0.000528436
0.0402898
0.000661917
0.0394696
0.000820197
0.00101689
0.0430387
-0.000243423
0.0431581
-0.000239712
0.043273
-0.000232577
0.0433798
-0.00021701
0.0434747
-0.000193571
0.0435537
-0.000162133
0.0436124
-0.000121757
0.0436453
-7.0729e-05
0.0436438
-3.40103e-06
0.0436109
6.04822e-05
0.043537
0.000141198
0.0434138
0.000238503
0.0432322
0.000354293
0.0429813
0.000491418
0.0426486
0.000653546
0.0422193
0.000845136
0.0416759
0.00107192
0.0409971
0.00134065
0.0401585
0.00165877
0.00205579
0.0446788
-0.00035572
0.0447887
-0.000349665
0.0448945
-0.000338387
0.0449919
-0.000314391
0.0450768
-0.000278456
0.045145
-0.000230307
0.0451916
-0.000168445
0.0452109
-8.99651e-05
0.0451977
9.80523e-06
0.0451506
0.000107589
0.0450605
0.000231265
0.0449191
0.000379898
0.044717
0.000556411
0.0444432
0.000765175
0.044085
0.00101175
0.0436274
0.00130279
0.0430524
0.00164692
0.0423388
0.00205428
0.0414628
0.0025347
0.00314002
0.0470639
-0.000446923
0.0471528
-0.000438531
0.0472376
-0.00042321
0.0473138
-0.000390543
0.0473765
-0.000341251
0.0474213
-0.000275058
0.0474429
-0.000190005
0.0474351
-8.21957e-05
0.0473998
4.51172e-05
0.0473248
0.000182541
0.0472042
0.000351854
0.0470296
0.000554578
0.0467911
0.000794839
0.0464778
0.00107855
0.0460764
0.00141311
0.0455716
0.00180755
0.0449454
0.00227315
0.0441754
0.00282426
0.0432405
0.00346959
0.00429772
0.050112
-0.000499805
0.0501623
-0.000488799
0.0502079
-0.000468864
0.0502443
-0.000426881
0.0502663
-0.000363313
0.050269
-0.000277694
0.0502469
-0.000167961
0.0501897
-2.49335e-05
0.0501107
0.000124073
0.0499879
0.000305307
0.0498159
0.000523886
0.0495865
0.000783991
0.0492899
0.00109138
0.0489146
0.00145387
0.0484473
0.0018804
0.0478719
0.002383
0.0471705
0.0029745
0.0463183
0.00367648
0.0452996
0.00448831
0.00556278
0.0537287
-0.000490364
0.0537157
-0.000475793
0.053696
-0.000449168
0.053665
-0.000395848
0.0536176
-0.000315917
0.0535486
-0.000208726
0.0534493
-6.87021e-05
0.0533318
9.26569e-05
0.0531767
0.00027911
0.0529758
0.000506222
0.0527229
0.000776818
0.0524093
0.00109754
0.0520255
0.00147517
0.0515591
0.00192033
0.0509971
0.00244242
0.0503213
0.00305878
0.0495158
0.00377998
0.0485496
0.00464266
0.0474178
0.00562013
0.00697462
0.0578182
-0.000385955
0.0577081
-0.000365753
0.0575877
-0.000328682
0.0574543
-0.000262492
0.0573026
-0.000164182
0.0571184
-2.45934e-05
0.0569219
0.000127834
0.0566965
0.000318094
0.0564277
0.000547872
0.0561117
0.00082223
0.0557418
0.00114675
0.0553082
0.00153106
0.0548021
0.00198126
0.0542093
0.00251321
0.053519
0.0031327
0.0527086
0.00386918
0.0517683
0.00472028
0.0506533
0.00575762
0.0493749
0.00689854
0.00859304
0.0622905
-0.000141763
0.0620405
-0.000115761
0.0617732
-6.13181e-05
0.0614838
2.68623e-05
0.0611812
0.000138452
0.0608674
0.000289176
0.0605196
0.000475673
0.0601351
0.000702586
0.0597095
0.000973425
0.0592354
0.00129638
0.0587063
0.00167578
0.0581113
0.00212612
0.0574432
0.00264937
0.0566833
0.00327304
0.0558261
0.00398997
0.0548369
0.00485838
0.0537241
0.00583302
0.0524197
0.00706203
0.0509691
0.00834912
0.0104032
0.0670623
0.000293233
0.0666143
0.000332227
0.0661542
0.000398753
0.0656826
0.000498519
0.0651869
0.000634154
0.0646655
0.000810596
0.0641133
0.00102783
0.0635251
0.00129075
0.0628965
0.00160205
0.0622188
0.00197409
0.0614869
0.00240768
0.0606872
0.00292586
0.0598174
0.00351915
0.0588531
0.00423734
0.0578012
0.00504181
0.0565981
0.00606151
0.0552826
0.00714853
0.0537055
0.0086391
0.0520503
0.0100044
0.0125097
0.0721367
0.00103572
0.0714266
0.00104226
0.0707159
0.00110951
0.0699884
0.00122599
0.0692374
0.00138513
0.0684603
0.00158773
0.0676547
0.00183343
0.0668152
0.00213023
0.0659381
0.00247915
0.065014
0.00289819
0.0640399
0.0033818
0.0629989
0.00396686
0.0618949
0.00462309
0.0606952
0.00543705
0.0594307
0.0063063
0.0580239
0.00746834
0.0566052
0.00856727
0.0548843
0.01036
0.0532939
0.0115948
0.0151018
0.071573
0.000988535
0.0715925
0.00102284
0.0715903
0.0011117
0.0715766
0.00123968
0.0715556
0.00140614
0.0715292
0.00161412
0.0715019
0.00186075
0.0714757
0.00215639
0.0714559
0.00249895
0.0714425
0.00291164
0.0714462
0.00337809
0.0714651
0.00394793
0.0715245
0.00456368
0.0716109
0.00535069
0.0717873
0.00612985
0.0720072
0.00724843
0.0724326
0.00814188
0.0729682
0.00982441
0.0741149
0.0104482
0.0130596
0.0761571
0.0768519
0.000934853
0.0768631
0.00101172
0.076861
0.00111377
0.0768524
0.0012483
0.0768361
0.00142243
0.0768149
0.00163526
0.0767958
0.00187989
0.0767819
0.00217028
0.0767785
0.00250239
0.0767869
0.0029032
0.0768174
0.00334758
0.0768731
0.0038922
0.0769731
0.00446378