/*--------------------------------*- C++ -*----------------------------------*\
| =========                 |                                                 |
| \\      /  F ield         | OpenFOAM: The Open Source CFD Toolbox           |
|  \\    /   O peration     | Version:  4.1                                   |
|   \\  /    A nd           | Web:      www.OpenFOAM.org                      |
|    \\/     M anipulation  |                                                 |
\*---------------------------------------------------------------------------*/
FoamFile
{
    version     2.0;
    format      ascii;
    class       volVectorField;
    location    "11.2";
    object      U;
}
// * * * * * * * * * * * * * * * * * * * * * * * * * * * * * * * * * * * * * //

dimensions      [0 1 -1 0 0 0 0];

internalField   nonuniform List<vector> 
2000
(
(-0.0316815 0.0266737 -1.0134e-20)
(-0.0160868 0.0337289 0)
(0.0671639 0.0269216 -2.26514e-20)
(0.206183 0.016774 -1.16913e-20)
(0.387841 0.00997304 2.19084e-20)
(0.593581 0.00896219 3.32649e-20)
(0.805058 0.0144448 -1.05704e-20)
(1.0005 0.0218928 0)
(1.19449 0.036327 9.92965e-21)
(1.31581 0.047391 0)
(-0.0277201 0.0211459 5.19958e-21)
(0.0203094 0.01673 -5.88307e-21)
(0.156363 0.00628958 1.93536e-20)
(0.357768 -0.000750594 3.09786e-20)
(0.596012 0.000446601 -7.61387e-22)
(0.839341 0.00927118 -1.13517e-20)
(1.06284 0.0228462 9.84285e-21)
(1.25248 0.0360831 1.01235e-20)
(1.40941 0.0512372 -9.929e-21)
(1.50576 0.0530976 -1.92242e-20)
(-0.0174129 0.0137287 -3.84736e-21)
(0.0782443 -0.00176309 3.60373e-21)
(0.2813 -0.0109114 -9.57786e-21)
(0.547736 -0.008693 -1.26895e-21)
(0.827258 0.00428278 -1.01849e-20)
(1.07953 0.0227511 -1.02664e-20)
(1.2844 0.0412244 -1.02411e-20)
(1.4387 0.0556665 -1.01231e-20)
(1.54916 0.0658679 -1.01447e-20)
(1.62728 0.067486 1.01176e-20)
(0.00157482 0.00478729 -5.996e-22)
(0.161711 -0.0190716 2.36868e-21)
(0.440164 -0.0197613 0)
(0.759234 -0.0031944 -1.01354e-20)
(1.05076 0.0213511 8.10496e-21)
(1.28053 0.0451947 0)
(1.44469 0.0633477 0)
(1.55513 0.0738737 0)
(1.63158 0.0794872 1.01452e-20)
(1.68114 0.077446 -2.0683e-20)
(0.0314888 -0.00460931 -3.58377e-22)
(0.272018 -0.0307722 -1.58396e-23)
(0.622449 -0.0155081 -1.9643e-21)
(0.967295 0.0163402 -4.36155e-21)
(1.23938 0.0478732 -3.69238e-21)
(1.42678 0.0712769 -4.37589e-21)
(1.5464 0.0848774 0)
(1.6229 0.0904564 -5.27463e-21)
(1.67602 0.0912968 2.77578e-20)
(1.71933 0.086402 -3.74762e-20)
(0.0739648 -0.0125727 -2.84455e-21)
(0.405674 -0.0315583 1.56714e-21)
(0.810022 0.00406288 4.00832e-21)
(1.1493 0.0472181 -4.76722e-21)
(1.38129 0.079517 1.17902e-20)
(1.52275 0.0981554 -3.22642e-21)
(1.60656 0.105874 0)
(1.66082 0.106609 5.27503e-21)
(1.70389 0.103622 -5.53603e-21)
(1.74381 0.0977721 -2.50433e-20)
(0.129304 -0.0165673 0)
(0.553324 -0.0172563 0)
(0.983825 0.0378502 1.25073e-21)
(1.29347 0.0858263 -1.16433e-21)
(1.47875 0.113826 4.03595e-21)
(1.5806 0.125616 -3.78917e-21)
(1.63924 0.127288 -1.14447e-20)
(1.68116 0.123682 1.08179e-20)
(1.7194 0.117657 1.30878e-20)
(1.75891 0.110649 -6.23201e-21)
(0.195861 -0.013888 2.70843e-21)
(0.701622 0.0134842 0)
(1.13076 0.0829623 9.91095e-22)
(1.39822 0.129444 -3.465e-21)
(1.5394 0.149872 4.46731e-21)
(1.61074 0.153953 0)
(1.65335 0.149812 0)
(1.6889 0.142215 0)
(1.72578 0.133487 1.46643e-20)
(1.76571 0.125447 -1.39394e-20)
(0.269765 -0.00238618 -1.52537e-21)
(0.837388 0.0590691 -2.69728e-22)
(1.24504 0.136272 -2.15785e-22)
(1.46702 0.176236 -5.9899e-22)
(1.5708 0.187152 -5.3658e-22)
(1.6204 0.183318 -2.36423e-21)
(1.65355 0.173641 0)
(1.68638 0.162285 2.01993e-21)
(1.72305 0.151126 1.04952e-20)
(1.76329 0.14143 -7.93567e-21)
(0.34543 0.0189654 0)
(0.951047 0.11613 -8.38328e-22)
(1.32563 0.194834 0)
(1.50465 0.224805 8.36446e-23)
(1.57892 0.225204 9.20783e-23)
(1.61395 0.213548 1.44826e-21)
(1.64201 0.198552 0)
(1.67396 0.183524 -2.02013e-21)
(1.71098 0.169863 -2.14621e-21)
(1.75175 0.157988 -2.45884e-21)
(-0.00625755 0.00621299 0)
(-0.026159 0.0120962 2.08169e-21)
(-0.0555627 0.0145567 0)
(-0.0850568 0.0154052 2.58868e-21)
(-0.112595 0.0155241 7.79208e-22)
(-0.137953 0.0154109 -1.43319e-21)
(-0.161309 0.0153476 1.34971e-21)
(-0.18305 0.0154827 -1.21544e-21)
(-0.203725 0.0159168 -2.25666e-23)
(-0.224125 0.0167391 -1.03524e-21)
(-0.00739638 0.0178666 6.69287e-21)
(-0.0270814 0.0349894 -4.15237e-21)
(-0.0544004 0.0422622 3.7138e-21)
(-0.0810228 0.0447529 -1.71996e-21)
(-0.105171 0.0450127 -7.79209e-21)
(-0.12664 0.0445109 2.91059e-21)
(-0.145597 0.0441022 0)
(-0.162363 0.0442709 1.21136e-21)
(-0.177352 0.0453518 1.1089e-21)
(-0.191731 0.0476232 0)
(-0.00949874 0.0273746 -4.46568e-21)
(-0.0289326 0.0542469 0)
(-0.052536 0.065928 -1.10234e-20)
(-0.0739503 0.0698669 1.34951e-20)
(-0.0918913 0.0700027 -3.13834e-21)
(-0.106247 0.0686715 0)
(-0.117197 0.0672923 0)
(-0.124993 0.0667673 0)
(-0.129744 0.0677788 -8.72574e-21)
(-0.132893 0.0708986 8.29286e-21)
(-0.0122461 0.0339088 0)
(-0.0316755 0.0682351 7.82744e-21)
(-0.0506669 0.0834964 -1.44231e-20)
(-0.0653174 0.0884904 6.67697e-21)
(-0.075071 0.0881259 -6.0632e-21)
(-0.0800398 0.0853921 1.68718e-20)
(-0.0804761 0.0821673 -2.07516e-22)
(-0.0766783 0.0797765 -9.75982e-21)
(-0.0684042 0.0794419 -8.86409e-21)
(-0.0560791 0.0827065 1.26638e-20)
(-0.0153379 0.0373689 -8.36299e-21)
(-0.0351856 0.0762545 1.52238e-20)
(-0.0492937 0.0937623 -5.61228e-23)
(-0.0562475 0.0991437 6.35721e-23)
(-0.0564045 0.0978491 -6.00627e-21)
(-0.0502502 0.0932449 1.69403e-20)
(-0.0381779 0.0874384 0)
(-0.0206502 0.0819382 4.93619e-21)
(0.00278395 0.0785702 -4.65445e-21)
(0.0338469 0.0809936 1.67244e-20)
(-0.0186052 0.0382658 -1.6287e-22)
(-0.039168 0.0785143 -1.4965e-20)
(-0.0482245 0.0964249 -6.97767e-21)
(-0.0465157 0.101191 -6.32408e-21)
(-0.0353374 0.0984955 -6.03784e-21)
(-0.0156186 0.0918604 -5.6321e-21)
(0.0120407 0.0833897 0)
(0.0469083 0.0744397 -4.9359e-21)
(0.0891535 0.0668658 -1.43492e-20)
(0.146118 0.0670153 4.28337e-21)
(-0.0220331 0.0374444 2.71067e-23)
(-0.0429952 0.0758752 -7.1638e-21)
(-0.0460358 0.0919858 0)
(-0.0335457 0.0948077 1.29469e-20)
(-0.00754904 0.0901665 -1.19677e-20)
(0.0306571 0.0816625 0)
(0.0802534 0.0714085 0)
(0.140007 0.0605917 0)
(0.206652 0.0493028 9.84362e-21)
(0.3037 0.0475698 1.76661e-20)
(-0.0256184 0.0356966 7.33513e-21)
(-0.0454273 0.0694384 -6.87103e-21)
(-0.0395242 0.0814947 -1.29756e-20)
(-0.0115594 0.0809634 1.88836e-22)
(0.0360399 0.0738952 -1.19723e-20)
(0.101462 0.0640054 -1.14663e-20)
(0.183091 0.0535604 -1.09756e-20)
(0.27872 0.044253 -1.05184e-20)
(0.376379 0.0320786 -9.84252e-21)
(0.527946 0.0330183 9.87013e-21)
(-0.0290489 0.0334132 2.00779e-20)
(-0.0442388 0.060096 6.99937e-21)
(-0.0233662 0.0662594 2.59593e-20)
(0.0285948 0.0614582 1.2521e-20)
(0.108606 0.0521537 1.52693e-22)
(0.213162 0.0421288 1.16357e-20)
(0.337816 0.0337019 -1.09322e-20)
(0.476731 0.0291772 1.05172e-20)
(0.6111 0.0211723 -1.0084e-20)
(0.809 0.030711 1.92907e-20)
(-0.0315017 0.0305658 -1.31237e-20)
(-0.035932 0.0482231 0)
(0.00958059 0.0475812 -1.24835e-20)
(0.0979362 0.0389273 7.70823e-23)
(0.22353 0.0290694 3.65599e-22)
(0.377853 0.0215857 -1.15732e-20)
(0.550755 0.0185936 3.26469e-20)
(0.727421 0.0200646 0)
(0.901274 0.0224078 1.00825e-20)
(1.09512 0.0401541 0)
(-0.24472 0.0177651 0)
(-0.266709 0.0177097 8.64978e-22)
(-0.288388 0.0173541 -1.68014e-21)
(-0.309695 0.0168769 7.17042e-22)
(-0.330528 0.0162724 0)
(-0.350709 0.015527 -6.26478e-22)
(-0.370046 0.014634 6.29582e-22)
(-0.38834 0.0135922 0)
(-0.405388 0.0124064 0)
(-0.420988 0.0110877 -4.84912e-23)
(-0.434951 0.00965379 0)
(-0.447104 0.00812994 0)
(-0.457311 0.00654961 0)
(-0.465487 0.00495546 0)
(-0.471615 0.00340038 2.5254e-23)
(-0.475723 0.00194702 -2.53848e-23)
(-0.477842 0.000658633 0)
(-0.478104 -0.000428875 3.87805e-24)
(-0.477164 -0.00133139 -3.89845e-24)
(-0.476427 -0.00197699 0)
(-0.207592 0.0505791 0)
(-0.227162 0.0506795 -2.21871e-22)
(-0.246425 0.0499222 0)
(-0.265532 0.0488159 -2.89138e-21)
(-0.284533 0.0473442 2.82324e-21)
(-0.303267 0.0454599 -1.63117e-22)
(-0.321555 0.0431358 1.1032e-21)
(-0.339212 0.0403608 -2.20277e-21)
(-0.356039 0.0371399 1.68802e-21)
(-0.371831 0.0334963 -8.78046e-22)
(-0.386381 0.0294721 -5.67266e-22)
(-0.399486 0.0251323 9.5754e-22)
(-0.410964 0.0205673 -4.50581e-22)
(-0.420664 0.0158977 -1.57302e-22)
(-0.428487 0.0112801 1.24539e-22)
(-0.434374 0.00690914 -1.3664e-23)
(-0.438299 0.00299406 -7.24701e-24)
(-0.440404 -0.000315922 -8.97404e-24)
(-0.441195 -0.00296428 9.0175e-24)
(-0.441457 -0.00477963 3.26082e-25)
(-0.140556 0.0756164 2.34783e-22)
(-0.155241 0.0763711 2.22261e-22)
(-0.169682 0.0759487 2.10458e-22)
(-0.184197 0.0750283 0)
(-0.199147 0.073563 3.08793e-21)
(-0.214438 0.0714612 -2.41267e-21)
(-0.229925 0.0686606 0)
(-0.245463 0.0651224 2.55981e-22)
(-0.260893 0.0608304 1.10749e-22)
(-0.276037 0.0557928 -1.14198e-21)
(-0.290698 0.0500458 2.72984e-22)
(-0.304663 0.0436595 1.17936e-21)
(-0.317707 0.0367459 4.07193e-23)
(-0.329603 0.0294692 3.31404e-23)
(-0.340133 0.0220627 1.56267e-23)
(-0.349082 0.0148426 -1.50741e-23)
(-0.356291 0.00819769 2.81167e-23)
(-0.361798 0.00252086 8.33157e-24)
(-0.365897 -0.00186308 -6.30571e-24)
(-0.368339 -0.00460384 -1.50393e-24)
(-0.0538564 0.0886454 7.13416e-21)
(-0.0621614 0.0906665 -4.12165e-22)
(-0.0700059 0.0913601 -6.73021e-22)
(-0.0779288 0.0914711 -6.56095e-21)
(-0.086692 0.0909829 -5.48664e-22)
(-0.0963331 0.0897425 -1.63207e-22)
(-0.106759 0.0876341 4.0696e-21)
(-0.117892 0.0845856 -2.62352e-21)
(-0.129657 0.0805492 -1.88848e-21)
(-0.141959 0.0754957 1.37519e-21)
(-0.15468 0.0694211 -2.88934e-22)
(-0.167672 0.0623556 -1.16515e-21)
(-0.180758 0.0543747 -4.03809e-23)
(-0.193722 0.0456155 -1.8827e-22)
(-0.206309 0.0363037 1.28615e-22)
(-0.218196 0.026786 1.651e-25)
(-0.229034 0.0175664 -1.22917e-23)
(-0.238682 0.00933358 0)
(-0.247207 0.00294598 2.34124e-23)
(-0.253268 -0.000706555 2.86212e-24)
(0.046206 0.0883659 -1.63362e-20)
(0.0450612 0.0922322 6.73043e-21)
(0.0434124 0.0943136 -7.21317e-21)
(0.0423537 0.0957933 0)
(0.0405959 0.0968194 3.68486e-22)
(0.0377471 0.0971393 5.11427e-21)
(0.0338426 0.0965419 -3.25399e-22)
(0.0289178 0.0949269 -6.38324e-22)
(0.0229573 0.0922331 -3.87571e-21)
(0.0159389 0.0884009 -1.80042e-22)
(0.00785902 0.0833832 0)
(-0.00126299 0.0771614 1.06295e-22)
(-0.0113776 0.0697547 0)
(-0.0223976 0.0612262 4.40714e-23)
(-0.0341951 0.0517007 0)
(-0.046554 0.0414065 0)
(-0.0591217 0.0307348 1.14602e-23)
(-0.0715831 0.0203584 -4.56884e-23)
(-0.0840338 0.0115314 4.56045e-23)
(-0.0949797 0.00624262 -1.87597e-23)
(0.166289 0.0772104 0)
(0.170542 0.083272 4.73674e-22)
(0.172573 0.0865274 1.41761e-20)
(0.176233 0.0891163 -1.37353e-20)
(0.180051 0.0915774 4.05682e-22)
(0.182995 0.0935076 0)
(0.185001 0.094564 4.76104e-21)
(0.186142 0.0946386 -8.5761e-21)
(0.186346 0.0936823 4.35013e-21)
(0.185479 0.0916182 2.03983e-22)
(0.183422 0.088367 1.61965e-22)
(0.18008 0.0838777 1.21453e-22)
(0.17537 0.0781397 0)
(0.169227 0.0711751 -1.86461e-22)
(0.161602 0.0630447 2.9317e-22)
(0.152496 0.0538653 -3.71953e-23)
(0.142003 0.0438391 -1.86004e-23)
(0.130327 0.0332749 -2.61291e-23)
(0.117285 0.0229698 2.09334e-23)
(0.103108 0.0154387 -2.11744e-23)
(0.326727 0.0611442 -1.8223e-20)
(0.332069 0.069165 0)
(0.333369 0.0728583 4.89218e-22)
(0.3376 0.0759712 -9.04997e-22)
(0.343429 0.0794054 -8.35265e-22)
(0.349023 0.0824448 -3.91229e-22)
(0.354151 0.0846491 -3.51686e-22)
(0.358978 0.0859857 4.14417e-21)
(0.363413 0.0864465 -4.93401e-21)
(0.367226 0.0859399 -3.47893e-21)
(0.370202 0.0843645 2.88637e-21)
(0.372168 0.0816502 -2.58508e-22)
(0.372949 0.0777706 5.7504e-22)
(0.372376 0.0727259 -3.07327e-22)
(0.370275 0.0665675 -3.66311e-22)
(0.366504 0.0593771 -7.17452e-24)
(0.360912 0.0513311 -5.21721e-23)
(0.353441 0.0425938 1.02626e-23)
(0.3441 0.0334773 1.16387e-22)
(0.330817 0.0249368 1.22204e-23)
(0.546133 0.0488619 0)
(0.547948 0.0571255 1.63592e-20)
(0.544779 0.0596172 -1.67784e-20)
(0.545733 0.0623763 4.65663e-22)
(0.549641 0.066052 8.82395e-22)
(0.554098 0.0693105 3.9089e-22)
(0.558766 0.071771 7.25273e-22)
(0.563882 0.0735898 0)
(0.569322 0.0747808 2.65343e-22)
(0.574788 0.0752055 2.21575e-22)
(0.580016 0.0747413 2.01175e-22)
(0.584808 0.0733037 2.95009e-22)
(0.588929 0.0708635 0)
(0.592179 0.0673961 0)
(0.594285 0.0629702 3.14969e-23)
(0.595077 0.0576229 6.28644e-23)
(0.594287 0.0516174 -4.42412e-23)
(0.59162 0.0449676 -9.7766e-24)
(0.587626 0.0385587 -6.01399e-23)
(0.578759 0.0309535 1.51541e-23)
(0.817611 0.0480163 -2.00941e-20)
(0.814735 0.053174 0)
(0.808359 0.0527679 0)
(0.806549 0.0547052 1.54904e-20)
(0.807601 0.0577347 -1.54168e-21)
(0.809303 0.060011 -2.72125e-20)
(0.811561 0.061602 1.25578e-20)
(0.814641 0.0628635 0)
(0.818377 0.0637779 0)
(0.822523 0.0641757 0)
(0.826864 0.0639529 -8.64167e-23)
(0.831287 0.063009 -2.46229e-22)
(0.835552 0.0613273 -1.72681e-21)
(0.839539 0.058821 1.66427e-21)
(0.842901 0.0556202 -3.43603e-22)
(0.845562 0.051609 3.19999e-22)
(0.847158 0.0473026 0)
(0.847424 0.0422008 1.09996e-23)
(0.846893 0.0381599 1.25305e-23)
(0.842831 0.0323377 0)
(1.10978 0.0507768 2.90937e-22)
(1.11152 0.0480025 1.76249e-20)
(1.11006 0.0467905 -1.74417e-20)
(1.10965 0.0495737 0)
(1.10879 0.0526858 -1.49479e-20)
(1.1073 0.055015 2.85734e-20)
(1.106 0.056931 -1.36385e-20)
(1.10531 0.0585345 0)
(1.10519 0.0596787 -4.85258e-21)
(1.1056 0.0602015 8.93687e-21)
(1.10644 0.0600794 -4.20212e-21)
(1.10775 0.0592115 8.87996e-23)
(1.10929 0.0576791 0)
(1.11111 0.0553267 1.56044e-21)
(1.11277 0.0524767 -1.99947e-21)
(1.11442 0.0487834 4.98131e-22)
(1.11552 0.045174 1.41349e-22)
(1.11613 0.0405908 -1.20453e-22)
(1.11624 0.0375626 -2.08631e-23)
(1.11482 0.0327352 0)
(1.44108 0.0559334 0)
(1.42125 0.0527148 0)
(1.40802 0.0516148 0)
(1.39729 0.0519876 0)
(1.38778 0.0527351 0)
(1.37967 0.0535532 0)
(1.37315 0.0543701 0)
(1.36817 0.0550199 0)
(1.36442 0.0554185 0)
(1.36175 0.0554233 0)
(1.35988 0.0550573 0)
(1.35881 0.0541382 0)
(1.35819 0.052835 0)
(1.35811 0.0508465 0)
(1.35811 0.0486663 0)
(1.35837 0.0456682 0)
(1.35838 0.0430463 0)
(1.35825 0.0393393 0)
(1.35795 0.0372505 0)
(1.35674 0.0333574 0)
(1.59293 0.063237 0)
(1.58696 0.0639266 0)
(1.58344 0.0638511 0)
(1.58023 0.0632461 0)
(1.57666 0.0626212 0)
(1.57315 0.0621165 0)
(1.5701 0.0616844 0)
(1.56769 0.0611458 0)
(1.56583 0.0604708 0)
(1.56452 0.0594936 0)
(1.56355 0.0583039 0)
(1.56303 0.0566529 0)
(1.56266 0.0548197 0)
(1.56259 0.0523729 0)
(1.56245 0.0499821 0)
(1.5624 0.0468017 0)
(1.56214 0.0442618 0)
(1.56162 0.0406075 0)
(1.56115 0.0387312 0)
(1.55964 0.0349911 0)
(1.6985 0.0651725 0)
(1.69766 0.0650779 0)
(1.69809 0.0649038 0)
(1.69918 0.0642219 0)
(1.70035 0.0634477 0)
(1.70154 0.0627635 0)
(1.70286 0.0621672 0)
(1.70442 0.061454 0)
(1.70612 0.0606223 0)
(1.70801 0.0594689 0)
(1.70988 0.0581569 0)
(1.71186 0.0563804 0)
(1.71366 0.0545294 0)
(1.71552 0.0520624 0)
(1.717 0.0497988 0)
(1.71846 0.0467239 0)
(1.71938 0.0444391 0)
(1.72022 0.040992 0)
(1.72051 0.0393774 0)
(1.72066 0.0358667 0)
(1.77892 0.0649914 0)
(1.78103 0.0634852 0)
(1.78339 0.0625055 0)
(1.78641 0.0614844 0)
(1.78987 0.0604977 0)
(1.79358 0.0596045 0)
(1.79742 0.0588415 0)
(1.80145 0.0580071 0)
(1.80555 0.0571288 0)
(1.80978 0.0559646 0)
(1.81388 0.0547218 0)
(1.81804 0.0530467 0)
(1.82185 0.0513938 0)
(1.82572 0.0491539 0)
(1.82894 0.0472119 0)
(1.83235 0.0444803 0)
(1.83469 0.0425835 0)
(1.83761 0.0395548 0)
(1.83883 0.0382564 0)
(1.84157 0.0351722 0)
(1.84747 0.0627834 0)
(1.85138 0.0603314 0)
(1.85509 0.0586553 0)
(1.85919 0.0572984 0)
(1.86373 0.0561126 0)
(1.86862 0.0550145 0)
(1.87364 0.054057 0)
(1.87885 0.0530655 0)
(1.88407 0.0521047 0)
(1.88947 0.0509186 0)
(1.89468 0.0497328 0)
(1.90005 0.0481752 0)
(1.90495 0.0467153 0)
(1.9101 0.0447339 0)
(1.91436 0.043098 0)
(1.9192 0.0407465 0)
(1.92245 0.0392003 0)
(1.9271 0.0366264 0)
(1.92894 0.0355956 0)
(1.93394 0.0329711 0)
(1.91439 0.0589725 0)
(1.91921 0.0561005 0)
(1.92372 0.0540063 0)
(1.92836 0.0523774 0)
(1.9333 0.0510161 0)
(1.93856 0.0497554 0)
(1.94395 0.0486396 0)
(1.94954 0.0475149 0)
(1.95508 0.0464735 0)
(1.96083 0.0452663 0)
(1.96634 0.0441182 0)
(1.97212 0.0426652 0)
(1.97734 0.0413558 0)
(1.98302 0.0396046 0)
(1.98761 0.0382093 0)
(1.99317 0.0361966 0)
(1.99675 0.0349212 0)
(2.0024 0.0327528 0)
(2.00448 0.0319211 0)
(2.01085 0.0297101 0)
(1.98489 0.0543881 0)
(1.99008 0.0514359 0)
(1.99491 0.0491324 0)
(1.9997 0.0472941 0)
(2.00462 0.0457729 0)
(2.00982 0.0443808 0)
(2.01511 0.0431456 0)
(2.0206 0.0419221 0)
(2.026 0.0408145 0)
(2.03163 0.039592 0)
(2.03697 0.0384684 0)
(2.04266 0.0371032 0)
(2.04772 0.0359068 0)
(2.05339 0.0343458 0)
(2.05787 0.0331317 0)
(2.06356 0.0313972 0)
(2.06709 0.0303235 0)
(2.07306 0.0284875 0)
(2.07513 0.0278011 0)
(2.08202 0.0259336 0)
(2.05992 0.0496025 0)
(2.06516 0.046712 0)
(2.07004 0.0443249 0)
(2.07479 0.0423502 0)
(2.07954 0.0407059 0)
(2.08448 0.0392179 0)
(2.08946 0.0379014 0)
(2.09464 0.0366147 0)
(2.09969 0.0354618 0)
(2.10497 0.034234 0)
(2.10992 0.0331307 0)
(2.11526 0.0318403 0)
(2.11993 0.0307319 0)
(2.1253 0.0293255 0)
(2.12944 0.02825 0)
(2.13491 0.0267376 0)
(2.13817 0.025816 0)
(2.14401 0.0242437 0)
(2.14593 0.0236662 0)
(2.15274 0.0220735 0)
(2.13797 0.0447877 0)
(2.14315 0.0420108 0)
(2.148 0.0396316 0)
(2.15267 0.0376056 0)
(2.15723 0.0358992 0)
(2.1619 0.0343625 0)
(2.16655 0.0330073 0)
(2.17137 0.0316958 0)
(2.17602 0.0305269 0)
(2.18089 0.0293119 0)
(2.1854 0.0282364 0)
(2.1903 0.0270172 0)
(2.19452 0.0259859 0)
(2.19946 0.0247106 0)
(2.20319 0.023748 0)
(2.20826 0.0224164 0)
(2.21119 0.0216151 0)
(2.21665 0.0202545 0)
(2.21837 0.0197619 0)
(2.22476 0.0183916 0)
(2.21662 0.0399224 0)
(2.22175 0.037303 0)
(2.2266 0.0350104 0)
(2.23122 0.033017 0)
(2.23565 0.0313171 0)
(2.24011 0.029786 0)
(2.24449 0.0284379 0)
(2.24899 0.0271426 0)
(2.25329 0.025992 0)
(2.25779 0.0248152 0)
(2.2619 0.0237842 0)
(2.26638 0.0226428 0)
(2.27019 0.0216892 0)
(2.27468 0.0205344 0)
(2.27802 0.0196726 0)
(2.28264 0.0184969 0)
(2.28526 0.0177974 0)
(2.29024 0.0166151 0)
(2.29177 0.0161926 0)
(2.29759 0.0150116 0)
(2.29339 0.0349535 0)
(2.29856 0.0325427 0)
(2.30344 0.0304009 0)
(2.30807 0.0285102 0)
(2.31245 0.0268812 0)
(2.31679 0.0254101 0)
(2.32098 0.0241156 0)
(2.32525 0.022878 0)
(2.32929 0.0217819 0)
(2.33347 0.020673 0)
(2.33728 0.0197089 0)
(2.34139 0.0186594 0)
(2.34487 0.0177918 0)
(2.34896 0.0167578 0)
(2.35198 0.015994 0)
(2.35616 0.0149634 0)
(2.35851 0.0143566 0)
(2.36301 0.0133357 0)
(2.36438 0.0129748 0)
(2.36962 0.0119659 0)
(2.36641 0.0298451 0)
(2.37163 0.0276881 0)
(2.37658 0.0257464 0)
(2.38126 0.0240138 0)
(2.38564 0.0225107 0)
(2.38991 0.0211504 0)
(2.39398 0.0199542 0)
(2.39808 0.0188148 0)
(2.40193 0.0178088 0)
(2.40587 0.0167987 0)
(2.40944 0.0159261 0)
(2.41325 0.0149878 0)
(2.41647 0.0142189 0)
(2.42022 0.0133139 0)
(2.42297 0.0126513 0)
(2.42677 0.0117656 0)
(2.4289 0.0112484 0)
(2.43295 0.010384 0)
(2.43419 0.0100806 0)
(2.43888 0.00923865 0)
(2.43486 0.0246087 0)
(2.44005 0.022739 0)
(2.44502 0.0210359 0)
(2.44969 0.0195051 0)
(2.45404 0.018173 0)
(2.45822 0.0169672 0)
(2.46218 0.0159085 0)
(2.4661 0.0149037 0)
(2.46977 0.0140195 0)
(2.47348 0.0131373 0)
(2.47683 0.0123794 0)
(2.48036 0.0115724 0)
(2.48333 0.0109159 0)
(2.48675 0.0101514 0)
(2.48928 0.00959537 0)
(2.4927 0.00885993 0)
(2.49464 0.00843239 0)
(2.49826 0.00772655 0)
(2.49937 0.00747881 0)
(2.50354 0.00680503 0)
(2.4989 0.01937 0)
(2.50386 0.0178089 0)
(2.50864 0.0163726 0)
(2.51313 0.015075 0)
(2.5173 0.0139453 0)
(2.52126 0.0129249 0)
(2.52498 0.0120322 0)
(2.52862 0.0111884 0)
(2.53201 0.0104489 0)
(2.53541 0.00971572 0)
(2.53847 0.00908904 0)
(2.54165 0.00842814 0)
(2.54434 0.00789328 0)
(2.54737 0.00727811 0)
(2.54963 0.00683193 0)
(2.55263 0.00625086 0)
(2.55435 0.00591225 0)
(2.5575 0.00536643 0)
(2.55848 0.00517236 0)
(2.56207 0.00466699 0)
(2.55867 0.0144235 0)
(2.56309 0.0131718 0)
(2.56739 0.0120108 0)
(2.57144 0.0109574 0)
(2.57517 0.0100412 0)
(2.57867 0.0092173 0)
(2.58195 0.00850028 0)
(2.58511 0.00782694 0)
(2.58807 0.00723946 0)
(2.59098 0.0066617 0)
(2.59361 0.00617006 0)
(2.59631 0.00565792 0)
(2.5986 0.00524466 0)
(2.60114 0.00477741 0)
(2.60304 0.00443766 0)
(2.60552 0.00400634 0)
(2.60696 0.00375165 0)
(2.60953 0.00335876 0)
(2.61035 0.00321434 0)
(2.61326 0.00286793 0)
(2.61299 0.0101346 0)
(2.6166 0.00916835 0)
(2.62016 0.00826665 0)
(2.62351 0.00744542 0)
(2.62658 0.00673177 0)
(2.62942 0.0060942 0)
(2.63206 0.00554282 0)
(2.63458 0.00502974 0)
(2.63692 0.00458421 0)
(2.63921 0.00415116 0)
(2.64128 0.00378394 0)
(2.64336 0.0034082 0)
(2.64514 0.00310488 0)
(2.64707 0.00277086 0)
(2.64853 0.00252553 0)
(2.65039 0.00222682 0)
(2.65149 0.00204535 0)
(2.65339 0.00178553 0)
(2.654 0.00168382 0)
(2.65614 0.00147273 0)
(2.6593 0.0067076 0)
(2.66203 0.00598987 0)
(2.66477 0.00531895 0)
(2.66734 0.00470734 0)
(2.66967 0.00417676 0)
(2.67178 0.00370614 0)
(2.67372 0.00330145 0)
(2.67552 0.0029288 0)
(2.6772 0.00260644 0)
(2.6788 0.00229778 0)
(2.68026 0.00203652 0)
(2.68168 0.00177556 0)
(2.68291 0.00156404 0)
(2.68419 0.00133965 0)
(2.68519 0.00117174 0)
(2.68639 0.000979544 0)
(2.68712 0.00085727 0)
(2.68832 0.000701172 0)
(2.68873 0.000633537 0)
(2.69006 0.000523386 0)
(2.69526 0.00409086 0)
(2.69724 0.00358666 0)
(2.69926 0.00312029 0)
(2.70113 0.00269948 0)
(2.7028 0.00233741 0)
(2.70424 0.00201918 0)
(2.70555 0.00174692 0)
(2.70671 0.0014984 0)
(2.70779 0.00128384 0)
(2.70877 0.0010813 0)
(2.70967 0.000909914 0)
(2.7105 0.00074308 0)
(2.71123 0.000606949 0)
(2.71192 0.000468575 0)
(2.71249 0.000362529 0)
(2.71309 0.000250001 0)
(2.71349 0.000174 0)
(2.71406 9.10214e-05 0)
(2.71427 4.95998e-05 0)
(2.71489 4.18782e-06 0)
(2.71977 0.00222003 0)
(2.72119 0.00188423 0)
(2.72267 0.00158668 0)
(2.72402 0.0013295 0)
(2.72519 0.00111499 0)
(2.72613 0.000930512 0)
(2.72695 0.000774525 0)
(2.72762 0.000633519 0)
(2.72825 0.000512192 0)
(2.72875 0.000399061 0)
(2.72924 0.000303528 0)
(2.7296 0.000212642 0)
(2.72995 0.000138149 0)
(2.7302 6.52906e-05 0)
(2.73044 8.13789e-06 0)
(2.73059 -4.79218e-05 0)
(2.73074 -8.79943e-05 0)
(2.73083 -0.000124679 0)
(2.7309 -0.000146183 0)
(2.73096 -0.000158261 0)
(2.73223 0.000880814 0)
(2.73334 0.000719424 0)
(2.73455 0.000584079 0)
(2.73562 0.000473245 0)
(2.73652 0.000384286 0)
(2.73718 0.000310326 0)
(2.73773 0.000249142 0)
(2.73813 0.000195296 0)
(2.7385 0.000149647 0)
(2.73875 0.00010822 0)
(2.739 7.36024e-05 0)
(2.73912 4.16966e-05 0)
(2.73926 1.56315e-05 0)
(2.73926 -8.8899e-06 0)
(2.73932 -2.84042e-05 0)
(2.73923 -4.63208e-05 0)
(2.73924 -5.95089e-05 0)
(2.73907 -7.02969e-05 0)
(2.73905 -7.7273e-05 0)
(2.73882 -7.93072e-05 0)
(1.79539 0.143868 2.40251e-21)
(1.80636 0.132654 0)
(1.80815 0.121326 -4.56433e-22)
(1.80247 0.110216 -1.38647e-20)
(1.78746 0.0996132 2.42677e-20)
(1.76809 0.0904984 0)
(1.73723 0.0812399 2.13188e-20)
(1.6956 0.0767663 0)
(1.65441 0.0646906 2.00963e-20)
(1.47058 0.0561025 -3.01421e-22)
(1.84592 0.132314 -2.67012e-21)
(1.85538 0.123132 5.48127e-22)
(1.85621 0.113571 -5.4923e-22)
(1.84955 0.105419 -9.82799e-22)
(1.83632 0.0963203 -1.3154e-20)
(1.81347 0.0908037 -8.09732e-22)
(1.79771 0.0824511 0)
(1.74112 0.0800691 -2.16289e-20)
(1.75353 0.0750448 0)
(1.60088 0.0634332 -1.88052e-20)
(1.90263 0.120747 5.47131e-21)
(1.90919 0.11326 0)
(1.91101 0.104612 -5.2289e-22)
(1.89972 0.098468 -3.99934e-22)
(1.89249 0.0905362 1.39809e-20)
(1.8591 0.0866434 0)
(1.85932 0.0809595 2.42398e-20)
(1.7885 0.0768521 2.22536e-20)
(1.81388 0.0767915 0)
(1.69988 0.067484 1.86119e-20)
(1.96331 0.110249 -2.46314e-21)
(1.96616 0.103931 1.0127e-20)
(1.97133 0.0964292 0)
(1.954 0.0911443 1.63714e-20)
(1.95387 0.0849322 9.11125e-22)
(1.91142 0.0804218 -1.74623e-21)
(1.91829 0.077408 -2.33054e-20)
(1.84656 0.0715882 -7.66834e-22)
(1.86222 0.0725452 -2.27442e-20)
(1.77625 0.0680919 0)
(2.02586 0.100692 0)
(2.0255 0.0950328 -9.87491e-21)
(2.03414 0.0890612 -1.1124e-20)
(2.01303 0.0838499 1.63445e-21)
(2.0168 0.0795229 -1.05506e-21)
(1.97245 0.074203 -8.79956e-22)
(1.97675 0.0725483 -2.60558e-20)
(1.91287 0.0673489 -1.55469e-21)
(1.91608 0.067064 -3.29237e-22)
(1.84296 0.0661619 2.14811e-20)
(2.08845 0.0917289 3.08156e-21)
(2.0866 0.0864786 6.63056e-22)
(2.09694 0.0819304 -1.60515e-21)
(2.07588 0.0768075 6.03621e-22)
(2.07983 0.0737239 -1.71971e-20)
(2.03936 0.0687352 0)
(2.03858 0.0671069 2.85288e-20)
(1.98285 0.0638172 -8.45134e-22)
(1.97924 0.0619168 4.80023e-20)
(1.90929 0.0624934 -4.35716e-20)
(2.1497 0.0830651 -3.09673e-21)
(2.14815 0.0783093 -5.79195e-21)
(2.15861 0.074693 1.03227e-20)
(2.1402 0.07014 -1.82774e-20)
(2.14308 0.0674869 -1.76778e-21)
(2.10807 0.0636878 -1.62894e-20)
(2.10465 0.0614819 8.80316e-22)
(2.05399 0.0597727 -1.68621e-21)
(2.04909 0.0568897 -2.35369e-20)
(1.97965 0.0578354 2.20845e-20)
(2.20885 0.0745123 0)
(2.20847 0.0704512 1.24731e-20)
(2.21869 0.067314 -1.35286e-21)
(2.20351 0.0636843 1.01014e-20)
(2.20629 0.061046 -5.67097e-22)
(2.17577 0.0584797 3.21466e-20)
(2.17299 0.0558185 -1.45405e-20)
(2.12555 0.0549472 0)
(2.1224 0.0518745 0)
(2.0547 0.0528472 0)
(2.26551 0.0660273 0)
(2.26627 0.0627396 -1.13414e-20)
(2.27672 0.0598857 -7.23597e-22)
(2.26419 0.0571786 1.00535e-20)
(2.26828 0.0545651 1.84678e-20)
(2.24115 0.0528686 -1.78854e-20)
(2.24094 0.0501785 1.74677e-20)
(2.19685 0.04971 -9.38548e-22)
(2.19642 0.0469089 0)
(2.13283 0.0478283 1.23147e-20)
(2.31962 0.0576335 4.02406e-22)
(2.32119 0.0550381 6.46087e-21)
(2.33227 0.0524744 1.00706e-20)
(2.32175 0.0504836 -5.78589e-22)
(2.32774 0.0480807 1.25136e-21)
(2.30365 0.0469205 -1.8924e-20)
(2.30638 0.0445328 1.84826e-20)
(2.26665 0.0443045 -9.6509e-22)
(2.26879 0.0418846 0)
(2.21152 0.0427622 -2.48395e-20)
(2.37166 0.0493982 0)
(2.37372 0.0473384 6.34287e-21)
(2.38536 0.0451207 1.95345e-22)
(2.3765 0.043624 0)
(2.38408 0.0415718 0)
(2.36316 0.0407558 1.67661e-20)
(2.36812 0.0387754 -1.53386e-20)
(2.33367 0.0387279 -9.1825e-22)
(2.33765 0.0366506 4.8537e-22)
(2.28826 0.0375495 1.29371e-20)
(2.42259 0.0414209 0)
(2.42497 0.0397685 -1.20515e-20)
(2.43664 0.0379207 -1.32676e-20)
(2.42936 0.0367606 2.02983e-21)
(2.43764 0.0350765 -1.30729e-21)
(2.42002 0.0344969 -1.11622e-21)
(2.42609 0.03287 2.12577e-21)
(2.39728 0.0329701 1.37779e-20)
(2.40219 0.0311797 1.35464e-21)
(2.36121 0.0321433 -4.22599e-22)
(2.47354 0.0337613 0)
(2.4761 0.0324652 6.48305e-21)
(2.48709 0.0309846 -7.28625e-22)
(2.48131 0.0300808 7.22608e-22)
(2.48936 0.0287088 0)
(2.47496 0.0282984 0)
(2.48106 0.0269302 0)
(2.45767 0.0271348 -1.56542e-20)
(2.46271 0.0255865 1.46934e-20)
(2.42965 0.0265765 0)
(2.52477 0.0267122 0)
(2.52735 0.0257212 4.12069e-21)
(2.53705 0.0245587 5.36964e-21)
(2.53266 0.0238496 7.06251e-21)
(2.53982 0.022713 -1.3517e-21)
(2.52844 0.0224042 8.49429e-21)
(2.53392 0.0212228 -7.73186e-21)
(2.51538 0.021446 0)
(2.52004 0.0201086 7.3163e-22)
(2.49392 0.0209983 -1.39991e-20)
(2.57449 0.0206538 -9.02343e-22)
(2.57699 0.0198827 -3.33702e-21)
(2.58515 0.0189626 -6.93958e-21)
(2.58211 0.0183754 -4.96694e-21)
(2.58818 0.0174178 0)
(2.57962 0.0171287 -1.08256e-20)
(2.58431 0.0161042 1.1081e-20)
(2.57017 0.0162287 -1.05471e-21)
(2.57423 0.0150898 -7.2632e-21)
(2.55426 0.0157251 2.02823e-20)
(2.61913 0.0156408 9.06975e-22)
(2.6217 0.0150231 -2.57785e-21)
(2.62842 0.0142992 2.34225e-21)
(2.62682 0.0137855 -5.83557e-21)
(2.6319 0.0129986 0)
(2.62615 0.0126764 0)
(2.6301 0.0118197 1.08998e-21)
(2.62018 0.0117734 -1.03367e-20)
(2.62358 0.0108382 -6.48418e-21)
(2.60941 0.0111428 -6.78021e-21)
(2.6555 0.0114514 0)
(2.65842 0.0109656 4.24254e-21)
(2.66402 0.0104284 -1.57305e-21)
(2.66395 0.00998596 5.1896e-21)
(2.66824 0.00938403 1.39873e-21)
(2.66522 0.00903645 -1.20187e-21)
(2.66854 0.00836654 2.27388e-21)
(2.66262 0.00817064 7.16721e-21)
(2.66537 0.00744076 0)
(2.65662 0.00746404 0)
(2.68294 0.0077584 0)
(2.68628 0.00743726 1.72858e-21)
(2.69102 0.00710265 -3.19861e-21)
(2.69231 0.00677437 0)
(2.69593 0.00637115 -2.73399e-21)
(2.69524 0.00605625 -1.21111e-21)
(2.69799 0.00557937 -3.40376e-21)
(2.69544 0.00531631 -1.00815e-21)
(2.69759 0.00478027 5.1979e-22)
(2.69336 0.00463188 4.44218e-22)
(2.70228 0.00438078 0)
(2.70579 0.0042722 -1.73686e-21)
(2.70979 0.00416416 -1.59025e-21)
(2.71194 0.00401808 2.21628e-21)
(2.71498 0.00383296 1.32006e-21)
(2.71587 0.00363885 1.25867e-21)
(2.71811 0.00336534 5.68524e-21)
(2.7179 0.00314312 -4.17891e-21)
(2.71954 0.00279226 9.77591e-22)
(2.71845 0.00258866 0)
(2.71292 0.00124285 0)
(2.71636 0.00132494 8.52923e-22)
(2.71985 0.00140527 -8.18916e-22)
(2.72234 0.00145351 7.78729e-22)
(2.72499 0.0014739 0)
(2.72662 0.00146045 -1.26492e-21)
(2.72853 0.0014036 1.11844e-21)
(2.72945 0.00132672 1.00844e-21)
(2.73077 0.00119226 0)
(2.73124 0.00106586 0)
(1.15149 0.246796 0)
(1.09452 0.269023 -5.92564e-20)
(1.04911 0.299029 0)
(1.01212 0.337765 -1.96784e-19)
(0.979633 0.384758 7.41616e-20)
(0.949427 0.441763 2.18878e-21)
(0.91849 0.509257 6.63841e-20)
(0.868646 0.575517 -7.18027e-21)
(0.739059 0.583829 0)
(0.410942 0.35717 6.96416e-20)
(1.23912 0.249921 1.08587e-19)
(1.18389 0.278333 5.9255e-20)
(1.13912 0.307108 -5.6996e-20)
(1.10175 0.344592 6.61936e-20)
(1.06997 0.391422 -5.79465e-20)
(1.04269 0.4483 7.33724e-21)
(1.01626 0.515067 -6.81591e-20)
(0.969442 0.578997 -1.36399e-19)
(0.831892 0.582674 -3.62587e-20)
(0.462375 0.350065 -1.02204e-19)
(1.3216 0.249073 -4.87812e-20)
(1.27107 0.279653 5.06366e-20)
(1.22802 0.307802 5.6994e-20)
(1.19029 0.344386 5.86402e-20)
(1.15889 0.390597 6.01387e-20)
(1.13419 0.446455 6.12128e-20)
(1.11167 0.511086 8.71187e-21)
(1.06648 0.570459 6.01438e-20)
(0.91875 0.567447 2.4288e-20)
(0.506845 0.332353 -2.59269e-20)
(1.40156 0.245618 9.74218e-20)
(1.35445 0.27652 -5.06343e-20)
(1.31289 0.303735 0)
(1.2753 0.338846 0)
(1.24456 0.383344 0)
(1.22215 0.436885 4.75097e-20)
(1.2025 0.497779 -4.21472e-20)
(1.15675 0.550237 0)
(0.99574 0.538504 1.82215e-20)
(0.540872 0.304603 -3.74116e-20)
(1.47692 0.239244 -1.88777e-20)
(1.43183 0.269182 6.71727e-20)
(1.39147 0.295244 0)
(1.35459 0.328489 0)
(1.32495 0.370351 2.0142e-20)
(1.30455 0.420355 1.93683e-20)
(1.28645 0.47598 2.61977e-20)
(1.23722 0.519165 1.52893e-20)
(1.05864 0.496914 2.40449e-20)
(0.561266 0.26847 -4.29508e-21)
(1.54498 0.230352 5.5662e-20)