/*--------------------------------*- C++ -*----------------------------------*\
| =========                 |                                                 |
| \\      /  F ield         | OpenFOAM: The Open Source CFD Toolbox           |
|  \\    /   O peration     | Version:  4.1                                   |
|   \\  /    A nd           | Web:      www.OpenFOAM.org                      |
|    \\/     M anipulation  |                                                 |
\*---------------------------------------------------------------------------*/
FoamFile
{
    version     2.0;
    format      ascii;
    class       volScalarField;
    location    "13.9";
    object      p;
}
// * * * * * * * * * * * * * * * * * * * * * * * * * * * * * * * * * * * * * //

dimensions      [0 2 -2 0 0 0 0];

internalField   nonuniform List<scalar> 
2000
(
-0.0897009
-0.0798238
-0.0709114
-0.0624905
-0.0546673
-0.0472872
-0.039912
-0.0332516
-0.0255195
-0.022775
-0.107758
-0.0942976
-0.0830449
-0.0725562
-0.0625825
-0.0529723
-0.043582
-0.0346616
-0.0255844
-0.0193861
-0.129433
-0.11185
-0.0980093
-0.0849701
-0.0719957
-0.0591923
-0.0467441
-0.0349099
-0.0235195
-0.0135164
-0.154608
-0.13242
-0.115611
-0.0990735
-0.081814
-0.0646507
-0.0482701
-0.0330369
-0.0187324
-0.00646871
-0.182322
-0.155299
-0.134801
-0.11325
-0.0902069
-0.0676558
-0.0467679
-0.0278289
-0.0107859
0.00399646
-0.210723
-0.178957
-0.153417
-0.12499
-0.0948863
-0.0663548
-0.0407542
-0.0181819
0.00163187
0.0188843
-0.236867
-0.200904
-0.168347
-0.13133
-0.0935083
-0.058964
-0.0288432
-0.00285432
0.019585
0.0392964
-0.257065
-0.217631
-0.17613
-0.129469
-0.084007
-0.0439165
-0.00974855
0.0192699
0.0441796
0.0662027
-0.267509
-0.225048
-0.173525
-0.117142
-0.0647476
-0.0199156
0.0176186
0.0491654
0.0762215
0.100103
-0.264844
-0.219425
-0.157788
-0.0927005
-0.0345838
0.013971
0.0540661
0.0875383
0.116269
0.141333
-0.0167013
-0.0200511
-0.0211864
-0.0216647
-0.0218052
-0.0215954
-0.0210465
-0.0201989
-0.0191429
-0.0180763
-0.0183194
-0.0214569
-0.022456
-0.0228408
-0.022891
-0.0225763
-0.0218957
-0.0208643
-0.0195412
-0.0182812
-0.0214459
-0.0241364
-0.0248801
-0.0250618
-0.0249129
-0.0243754
-0.0234216
-0.0220359
-0.0201809
-0.0183208
-0.025849
-0.0278968
-0.0282416
-0.0280887
-0.0276187
-0.026734
-0.0253658
-0.0234921
-0.020888
-0.0171982
-0.0312956
-0.03253
-0.0323055
-0.0316607
-0.0307371
-0.0293965
-0.0274972
-0.0249366
-0.0212537
-0.0162402
-0.0376294
-0.0378815
-0.0368725
-0.0355455
-0.0340195
-0.0321231
-0.0296302
-0.0263492
-0.0216564
-0.0138156
-0.0448499
-0.0439101
-0.0418413
-0.0396031
-0.0372694
-0.0346818
-0.0315077
-0.0274764
-0.0224685
-0.0108578
-0.0531774
-0.0506626
-0.0473497
-0.0438882
-0.0404905
-0.0370191
-0.0330377
-0.0281171
-0.0233554
-0.00901585
-0.0630225
-0.0585576
-0.053657
-0.0487152
-0.0440482
-0.0395042
-0.0345959
-0.0289147
-0.0237706
-0.00986681
-0.074974
-0.0680895
-0.0612983
-0.0547055
-0.0485788
-0.0427844
-0.0367971
-0.0308348
-0.0244541
-0.0155809
-0.0171611
-0.0160152
-0.0147828
-0.0135218
-0.0122424
-0.0109589
-0.00968775
-0.00844366
-0.00724044
-0.00609153
-0.00501052
-0.00401168
-0.00311047
-0.00232298
-0.00166241
-0.00113728
-0.000770497
-0.000628974
-0.000699432
-0.000473155
-0.0176898
-0.0164513
-0.0150999
-0.0137602
-0.0124155
-0.0110719
-0.00974548
-0.00845045
-0.00719967
-0.00600579
-0.00488177
-0.00384157
-0.00290079
-0.0020767
-0.0013859
-0.000842007
-0.000470097
-0.000338091
-0.000464093
-0.000393445
-0.0186198
-0.0171408
-0.015566
-0.0140876
-0.0126252
-0.0111723
-0.00974558
-0.00835829
-0.00702196
-0.00574808
-0.00454888
-0.00343809
-0.00243173
-0.00154876
-0.000810646
-0.000240575
0.000129074
0.000231815
1.07623e-05
-0.00020868
-0.0202754
-0.0177742
-0.0159148
-0.0142912
-0.0126854
-0.0110928
-0.00953504
-0.00802699
-0.00657966
-0.00520357
-0.00391078
-0.00271589
-0.00163626
-0.000692393
9.03965e-05
0.000677746
0.0010234
0.00106355
0.000706045
6.29306e-05
-0.0204849
-0.0188207
-0.0163276
-0.0143203
-0.0125535
-0.0108111
-0.0090882
-0.00742209
-0.00583198
-0.004328
-0.00292327
-0.00163594
-0.000485843
0.000507767
0.00131998
0.00190395
0.0021907
0.00210172
0.00153862
0.000499756
-0.0209222
-0.0198315
-0.0164254
-0.0139793
-0.0121339
-0.0103305
-0.00848813
-0.00668716
-0.00497073
-0.00334511
-0.00181674
-0.000402892
0.000869098
0.00195818
0.00281001
0.00336497
0.00355766
0.0032892
0.002469
0.000943012
-0.0209387
-0.0215749
-0.0173532
-0.0138476
-0.0116358
-0.00968389
-0.00764242
-0.00562706
-0.00373142
-0.0019611
-0.000314383
0.00118708
0.00251017
0.00361111
0.00444179
0.00492515
0.00498012
0.00446962
0.00334636
0.00134579
-0.0208851
-0.0227351
-0.0177473
-0.0135394
-0.0111119
-0.00901475
-0.00675402
-0.00452457
-0.00246047
-0.000555158
0.00120163
0.0027803
0.00414147
0.00523315
0.00600951
0.00637302
0.00625706
0.00549336
0.00400989
0.00160765
-0.0208422
-0.0224327
-0.0169945
-0.0127011
-0.0102163
-0.00790712
-0.00545905
-0.003143
-0.00103611
0.00090657
0.00269309
0.00427712
0.00561664
0.00664677
0.00732818
0.00753569
0.00724072
0.00622157
0.00453564
0.00171444
-0.0244334
-0.0222852
-0.0165098
-0.0127088
-0.00979831
-0.00685445
-0.00407446
-0.00164539
0.000503169
0.00244578
0.00418858
0.00568382
0.00690472
0.00778141
0.00829597
0.00831583
0.00783279
0.00659226
0.00468228
0.00172095
-0.0132688
-0.0107821
-0.00993708
-0.00849862
-0.00627028
-0.00381295
-0.00152509
0.000522134
0.00238379
0.0040745
0.00557878
0.00683995
0.00783532
0.00848453
0.00877814
0.00857252
0.00788882
0.00648884
0.0045002
0.00160242
-0.0105896
-0.00819023
-0.0064674
-0.00465393
-0.00259892
-0.00055606
0.00130778
0.00298116
0.00449794
0.00585078
0.00702249
0.0079602
0.00864447
0.00899702
0.00901148
0.00856102
0.00767616
0.00616207
0.00415835
0.00141725
-0.00276691
-0.00257759
-0.00120072
0.000543513
0.00215007
0.0035327
0.00476571
0.00590278
0.00694992
0.00786986
0.00863243
0.00918595
0.00950932
0.00953443
0.00925152
0.00856129
0.00748529
0.00589072
0.00388645
0.00132971
0.00646646
0.00431508
0.00478316
0.00610283
0.0071866
0.00791261
0.0084872
0.00903858
0.00957244
0.01003
0.0103625
0.0105178
0.0104716
0.0101697
0.00959457
0.00867662
0.00741914
0.00574922
0.00372486
0.00130018
0.0162121
0.012367
0.0115774
0.012087
0.0125055
0.0125687
0.0124791
0.012412
0.012394
0.0123608
0.0122459
0.0119935
0.011573
0.0109424
0.0100772
0.00893197
0.00749313
0.00572982
0.00365788
0.00129324
0.0264949
0.0212684
0.0190856
0.0184589
0.01807
0.0174433
0.0166866
0.0159845
0.0153883
0.0148414
0.0142655
0.0135984
0.0128014
0.0118402
0.0106865
0.00930941
0.00768629
0.00580588
0.0036633
0.00129452
0.0370407
0.0304473
0.0268331
0.0250635
0.0238074
0.0224615
0.0210368
0.019698
0.0185129
0.0174388
0.0163931
0.0153065
0.0141327
0.0128399
0.0113987
0.00978419
0.00797212
0.00595345
0.00372118
0.00130036
0.0473877
0.0395684
0.0346887
0.0318156
0.029656
0.0275655
0.0254688
0.0234974
0.0217246
0.0201194
0.0185995
0.0170912
0.0155418
0.0139178
0.0121898
0.0103333
0.00832664
0.00615426
0.0038158
0.00131291
0.0572794
0.048481
0.042514
0.038599
0.0355343
0.032682
0.0299104
0.0273187
0.0249708
0.0228412
0.0208502
0.018923
0.0170015
0.0150499
0.0130371
0.0109377
0.00873123
0.00639651
0.00393739
0.00133759
0.0666118
0.05709
0.0501896
0.0452917
0.0413419
0.0377161
0.0342822
0.0310932
0.0281922
0.0255555
0.0231054
0.0207695
0.0184844
0.0162135
0.0139205
0.011582
0.00917269
0.00667344
0.00408132
0.00138006
0.0752832
0.0652825
0.0575779
0.0517439
0.0469229
0.0425611
0.0384965
0.0347466
0.0313279
0.0282118
0.0253234
0.0225965
0.0199626
0.0173862
0.0148219
0.0122526
0.0096406
0.00697932
0.00424469
0.00144242
0.0831692
0.0729241
0.0645406
0.057828
0.052174
0.047121
0.0424789
0.0382169
0.034321
0.0307606
0.0274634
0.0243707
0.0214084
0.0185451
0.0157229
0.0129344
0.0101243
0.00730562
0.00442338
0.00152012
0.0901924
0.0798924
0.0709534
0.0634401
0.0570145
0.0513298
0.0461666
0.0414473
0.0371234
0.0331606
0.0294899
0.0260607
0.0227958
0.0196665
0.0166044
0.0136096
0.010611
0.00763895
0.00461019
0.00160104
0.0963667
0.0861068
0.0767247
0.0685145
0.0614
0.0551446
0.0495219
0.0444004
0.0397
0.035379
0.0313738
0.0276396
0.0241007
0.020727
0.0174463
0.0142579
0.0110854
0.00796214
0.00479484
0.00166856
0.101769
0.0915321
0.0817995
0.0730175
0.0653167
0.0585622
0.0525323
0.0470565
0.0420276
0.0373915
0.0330917
0.029084
0.025301
0.0217045
0.0182287
0.0148593
0.0115312
0.00825833
0.00496629
0.00170885
0.106446
0.096154
0.0861358
0.0769159
0.0687477
0.0615715
0.0551856
0.0493978
0.0440842
0.0391745
0.03462
0.0303712
0.0263751
0.0225783
0.0189326
0.0153963
0.0119336
0.0085157
0.00511607
0.00171835
0.110351
0.099908
0.0896761
0.0801548
0.0716423
0.0641284
0.0574424
0.0513871
0.0458335
0.0406937
0.0359271
0.0314729
0.0272973
0.0233266
0.019538
0.0158541
0.0122793
0.00872829
0.00523964
0.00170541
0.1134
0.102767
0.0923742
0.082658
0.0739115
0.0661478
0.0592283
0.0529603
0.0472183
0.0418982
0.0369667
0.0323498
0.0280332
0.0239222
0.0200212
0.0162167
0.0125543
0.00889216
0.00533405
0.00168297
0.115583
0.104765
0.0942361
0.0843861
0.075486
0.0675537
0.0604723
0.054055
0.048182
0.0427369
0.0376922
0.0329621
0.0285477
0.024338
0.0203589
0.0164689
0.0127456
0.00900421
0.0053971
0.00166195
0.116878
0.105929
0.09528
0.0853303
0.0763354
0.0683066
0.061134
0.0546343
0.0486899
0.0431786
0.0380735
0.0332842
0.0288175
0.0245567
0.0205353
0.016602
0.0128448
0.00906458
0.0054286
0.00165353
0.161226
0.120198
0.0857145
0.0575728
0.0355481
0.0188471
0.0067329
-0.0024002
-0.00802637
-0.0195996
0.177748
0.138033
0.104292
0.0760395
0.0532995
0.0347735
0.0210102
0.00800007
0.00083344
-0.0134681
0.193096
0.154958
0.122336
0.0942406
0.0711671
0.0508361
0.0355468
0.0195093
0.0115339
-0.0022964
0.207179
0.170468
0.138818
0.110774
0.0874995
0.0659521
0.0499629
0.0330278
0.0244583
0.0104258
0.219999
0.184475
0.153616
0.125639
0.102365
0.0803745
0.0641859
0.0470308
0.0370432
0.0221742
0.231644
0.19715
0.167015
0.139268
0.116184
0.0941543
0.0776278
0.0600375
0.0486377
0.0334273
0.242192
0.208637
0.179207
0.151827
0.128968
0.106966
0.0899887
0.0721009
0.0600062
0.0448956
0.251684
0.218995
0.19023
0.163269
0.140601
0.11869
0.10146
0.0836558
0.0712707
0.0563034
0.260136
0.228237
0.20007
0.173547
0.15108
0.129399
0.112138
0.0945969
0.081909
0.0671355
0.267575
0.236393
0.208753
0.182688
0.160449
0.139106
0.121861
0.104591
0.0915603
0.0771314
0.274046
0.243535
0.216352
0.190756
0.168742
0.147764
0.130499
0.113495
0.100187
0.086166
0.279599
0.249729
0.222958
0.197825
0.176019
0.155384
0.138094
0.121343
0.107859
0.094137
0.284321
0.255031
0.228665
0.203979
0.18238
0.162051
0.144782
0.128218
0.114652
0.101036
0.288306
0.259553
0.233592
0.209319
0.187948
0.167872
0.150685
0.134222
0.120653
0.107009
0.291673
0.263414
0.237845
0.213939
0.192809
0.172944
0.155872
0.139477
0.125937
0.112282
0.2945
0.26669
0.241476
0.217903
0.196996
0.177338
0.160363
0.144083
0.130536
0.116997
0.296805
0.269404
0.244487
0.221231
0.200498
0.181075
0.164143
0.148059
0.134424
0.121108
0.29854
0.271516
0.24684
0.223896
0.203286
0.184126
0.167186
0.151343
0.137556
0.124458
0.299586
0.272908
0.248438
0.225796
0.205293
0.186398
0.169447
0.153831
0.139894
0.126936
0.299884
0.273435
0.24911
0.226697
0.206297
0.187611
0.170689
0.155245
0.141246
0.128373
0.77407
0.77519
0.76848
0.755568
0.737762
0.714684
0.683882
0.642037
0.590768
0.562336
0.721624
0.718636
0.703728
0.684103
0.66094
0.632112
0.594248
0.543834
0.482562
0.4467
0.662779
0.654181
0.633014
0.608205
0.580117
0.545544
0.500721
0.442124
0.371422
0.328598
0.594332
0.581509
0.556781
0.52851
0.49632
0.456566
0.405469
0.33969
0.260602
0.212001
0.521474
0.50526
0.478102
0.447192
0.411528
0.367308
0.310944
0.239568
0.153555
0.101177
0.448426
0.429016
0.39994
0.36691
0.328357
0.280432
0.219746
0.144544
0.0537788
0.00107838
0.377389
0.355074
0.324652
0.29011
0.249371
0.19869
0.134713
0.056011
-0.031815
-0.0856869
0.309839
0.28525
0.254207
0.218915
0.17685
0.124657
0.0591569
-0.0197537
-0.103368
-0.156842
0.247187
0.221243
0.190412
0.15517
0.112751
0.0603342
-0.00447887
-0.0810653
-0.159253
-0.210655
0.19029
0.164634
0.134696
0.0999701
0.0582159
0.00708984
-0.055215
-0.127173
-0.197971
-0.246459
1.05926
1.06745
1.077
1.08794
1.10028
1.1139
1.12834
1.14229
1.15495
1.17253
1.05629
1.06387
1.07296
1.08339
1.09509
1.10791
1.12137
1.13415
1.14545
1.16227
1.05005
1.05639
1.06458
1.07401
1.08443
1.09566
1.10718
1.11758
1.1263
1.1414
1.03994
1.04443
1.05129
1.05925
1.06779
1.07669
1.08533
1.09223
1.09712
1.10959
1.02522
1.02722
1.03236
1.03843
1.04453
1.05039
1.05527
1.05759
1.05743
1.06634
1.00499
1.00385
1.0069
1.01071
1.01389
1.01607
1.01641
1.01315
1.00675
1.0112
0.978365
0.973495
0.974262
0.975555
0.975349
0.973233
0.968274
0.958528
0.944778
0.943873
0.943743
0.93475
0.933421
0.932194
0.928299
0.921425
0.91058
0.893573
0.871482
0.864431
0.900669
0.88789
0.885093
0.881027
0.872833
0.860684
0.843449
0.818546
0.787266
0.773437
0.843604
0.832113
0.82947
0.822159
0.809222
0.791523
0.767545
0.734263
0.693136
0.672109
1.0002
1.00092
1.00221
1.00367
1.00512
1.00659
1.00815
1.00984
1.01167
1.01369
1.01591
1.01836
1.02108
1.02412
1.02754
1.03137
1.0357
1.04057
1.04607
1.05228
1.0002
1.00092
1.00217
1.00359
1.00499
1.00642
1.00794
1.00957
1.01136
1.01331
1.01545
1.01781
1.02043
1.02336
1.02663
1.03031
1.03443
1.03906
1.04425
1.05008
1.00022
1.00091
1.00208
1.0034
1.00472
1.00606
1.00748
1.00901
1.01068
1.01249
1.01447
1.01665
1.01906
1.02174
1.02472
1.02803
1.03172
1.03583
1.04036
1.04541
1.00023
1.00087
1.0019
1.00308
1.00427
1.00547
1.00673
1.00809
1.00956
1.01115
1.01287
1.01475
1.01681
1.01908
1.02157
1.0243
1.02728
1.03053
1.03397
1.03772
1.00023
1.00078
1.00163
1.0026
1.00358
1.00457
1.00561
1.00671
1.0079
1.00915
1.01049
1.01193
1.01348
1.01514
1.01691
1.01877
1.02069
1.02265
1.02448
1.02627
1.0002
1.00063
1.00122
1.00191
1.00262
1.00334
1.00407
1.00484
1.00559
1.00637
1.00719
1.00802
1.00886
1.00966
1.01041
1.01104
1.01148
1.01165
1.01122
1.01023
1.00012
1.00037
1.00065
1.00098
1.00134
1.00168
1.00201
1.00228
1.00251
1.0027
1.00283
1.00285
1.00272
1.00238
1.00176
1.00072
0.99915
0.99688
0.99351
0.988911
0.999985
0.999959
0.999876
0.999791
0.999702
0.999565
0.999345
0.999032
0.998613
0.99805
0.997301
0.996291
0.994956
0.993165
0.990824
0.987683
0.983587
0.978071
0.970731
0.960803
0.999756
0.99932
0.998836
0.998306
0.9977
0.99698
0.996124
0.995106
0.993889
0.992401
0.990578
0.988294
0.98547
0.981862
0.977403
0.971588
0.964447
0.954843
0.94294
0.92596
0.999552
0.998561
0.997622
0.996623
0.995413
0.993971
0.99233
0.990455
0.988274
0.985655
0.982511
0.978625
0.973914
0.967915
0.960629
0.950963
0.93941
0.923225
0.904876
0.877438
0.999313
0.997856
0.996571
0.995102
0.99321
0.990947
0.988436
0.985632
0.982418
0.97858
0.974017
0.968423
0.961724
0.953263
0.943102
0.929711
0.913733
0.890909
0.863408
0.817294
0.999065
0.99734
0.995737
0.993678
0.990964
0.987834
0.984502
0.980858
0.976715
0.971789
0.966011
0.959003
0.950761
0.940458
0.928329
0.912545
0.894137
0.868911
0.840506
0.800875
0.999697
0.997962
0.995794
0.992607
0.988634
0.984497
0.980391
0.975971
0.97093
0.964946
0.958021
0.949726
0.940135
0.928292
0.914625
0.897184
0.877462
0.851491
0.823666
0.786077
0.999268
0.9996
0.997583
0.99231
0.986247
0.980872
0.976066
0.970935
0.964994
0.957934
0.949883
0.940365
0.929538
0.916331
0.901384
0.882653
0.862052
0.8355
0.807947
0.771046
0.999672
1.00239
0.99988
0.991609
0.98309
0.976619
0.971352
0.965625
0.958807
0.950694
0.941578
0.930935
0.918999
0.904606
0.8886
0.868853
0.8476
0.820634
0.793307
0.757321
0.999836
1.0043
1.0007
0.989292
0.978857
0.97193
0.966435
0.960065
0.952327
0.943211
0.933128
0.921475
0.908545
0.893131
0.876235
0.855714
0.83397
0.806877
0.779827
0.745002
0.994325
0.992943
0.98872
0.979607
0.97211
0.966962
0.961527
0.954243
0.945475
0.935462
0.924561
0.912039
0.898216
0.88193
0.864269
0.843199
0.821084
0.794133
0.767335
0.733791
0.998958
0.977796
0.958842
0.956739
0.96091
0.961497
0.956591
0.948098
0.938238
0.927499
0.915963
0.902728
0.888112
0.871104
0.852783
0.831366
0.808961
0.782349
0.755728
0.723505
0.992868
0.957147
0.93482
0.940888
0.953682
0.957957
0.952819
0.942853
0.931775
0.920233
0.907994
0.894043
0.878643
0.861004
0.842081
0.820452
0.79779
0.771616
0.745092
0.714127
0.99212
0.952293
0.928618
0.936772
0.951501
0.955854
0.949565
0.938335
0.926248
0.913895
0.900852
0.886151
0.869996
0.851822
0.83238
0.810631
0.787753
0.76203
0.735569
0.705698
0.996584
0.968681
0.950639
0.953316
0.958816
0.956605
0.947331
0.935007
0.922176
0.908944
0.894908
0.879349
0.862452
0.843806
0.823933
0.802091
0.779052
0.753695
0.727317
0.698288
0.989179
0.99151
0.997891
0.991366
0.977291
0.96189
0.947444
0.93374
0.92013
0.905813
0.890556
0.873986
0.856332
0.837213
0.816978
0.794998
0.771851
0.746686
0.720451
0.691934
1.00108
1.02227
1.03321
1.01699
0.989594
0.965238
0.947116
0.932476
0.918374
0.903219
0.886958
0.869524
0.85128
0.831771
0.811308
0.789167
0.766013
0.74087
0.71488
0.686529
1.0079
1.03783
1.04945
1.02853
0.995013
0.966234
0.946299
0.931225
0.916835
0.901051
0.884018
0.865881
0.847189
0.827345
0.806741
0.784416
0.761319
0.736087
0.710415
0.682019
1.01038
1.04616
1.05886
1.03359
0.995365
0.964249
0.944043
0.929324
0.915015
0.898868
0.881316
0.862674
0.843654
0.823537
0.802817
0.780345
0.757312
0.732044
0.706669
0.678358
1.00706
1.05094
1.07244
1.04254
0.995767
0.960205
0.939359
0.925493
0.911788
0.895722
0.878114
0.85936
0.840197
0.819929
0.799093
0.776588
0.753587
0.728483
0.703302
0.675429
0.97409
0.984612
1.01565
1.01426
0.991333
0.964484
0.942229
0.924485
0.908495
0.892085
0.874771
0.856328
0.837177
0.816825
0.795815
0.77335
0.750316
0.725522
0.700413
0.673155
1.00236
0.937644
0.88262
0.896766
0.931632
0.94745
0.94018
0.92208
0.903443
0.886662
0.870449
0.853065
0.834311
0.814082
0.792985
0.770651
0.747614
0.723175
0.698117
0.671385
1.00798
0.939637
0.870616
0.877572
0.916016
0.937404
0.934327
0.918964
0.901461
0.884743
0.868339
0.850965
0.832276
0.812189
0.791085
0.768867
0.745815
0.721626
0.696612
0.670254
0.96972
0.986267
1.025
1.01208
0.973679
0.944037
0.927919
0.916099
0.902489
0.886311
0.868705
0.850355
0.831325
0.811297
0.790224
0.768054
0.744951
0.720879
0.695884
0.669785
0.768195
0.71179
0.654085
0.590264
0.521702
0.452962
0.386369
0.32277
0.263269
0.20894
0.762297
0.703444
0.642672
0.581727
0.517189
0.451879
0.388993
0.3293
0.273672
0.22303
0.750656
0.693946
0.632105
0.573476
0.513556
0.452092
0.392545
0.336309
0.284117
0.236224
0.738355
0.685367
0.623873
0.566231
0.509995
0.452407
0.396022
0.342782
0.293562
0.24819
0.726491
0.676873
0.616736
0.559791
0.506441
0.452696
0.399537
0.348967
0.302299
0.25913
0.715246
0.668504
0.610449
0.554463
0.503333
0.453051
0.40308
0.354969
0.310468
0.269162
0.704573
0.66028
0.604752
0.550159
0.500845
0.453504
0.406542
0.360737
0.318091
0.278335
0.694429
0.65226
0.59957
0.546833
0.499136
0.454173
0.409864
0.366188
0.325149
0.286681
0.6849
0.644567
0.594895
0.544395
0.498223
0.455098
0.412967
0.371186
0.331561
0.294186
0.676171
0.637411
0.590743
0.542697
0.497994
0.456236
0.415769
0.375598
0.337225
0.300832
0.668534
0.631114
0.587183
0.541544
0.498218
0.457463
0.418196
0.379342
0.342051
0.306536
0.662237
0.625978
0.584275
0.540706
0.498597
0.458601
0.420195
0.382406
0.34606
0.311331
0.657267
0.622049
0.581961
0.539944
0.498838
0.459472
0.421738
0.384836
0.349381
0.315475
0.653439
0.619117
0.580085
0.539094
0.498765
0.459974
0.42284
0.386714
0.352075
0.318918
0.650388
0.616712
0.578362
0.53806
0.498353
0.460121
0.423565
0.388139
0.354232
0.321761
0.647691
0.614361
0.576574
0.536895
0.497762
0.460065
0.424044
0.389234
0.355961
0.324103
0.645201
0.61198
0.574769
0.535772
0.497201
0.459967
0.42438
0.390076
0.357322
0.325991
0.643034
0.609779
0.573076
0.534722
0.496636
0.459758
0.424487
0.390583
0.358252
0.327379
0.641613
0.608242
0.571807
0.533828
0.496002
0.4593
0.424207
0.390595
0.358602
0.328129
0.641056
0.607641
0.571292
0.533388
0.495547
0.458804
0.423705
0.390208
0.358385
0.328171
)
;

boundaryField
{
    bottom
    {
        type            symmetryPlane;
    }
    right
    {
        type            fixedValue;
        value           uniform 0;
    }
    top
    {
        type            symmetryPlane;
    }
    left
    {
        type            fixedValue;
        value           uniform 1;
    }
    cylinder
    {
        type            zeroGradient;
    }
    defaultFaces
    {
        type            empty;
    }
}


// ************************************************************************* //
