/*--------------------------------*- C++ -*----------------------------------*\
| =========                 |                                                 |
| \\      /  F ield         | OpenFOAM: The Open Source CFD Toolbox           |
|  \\    /   O peration     | Version:  4.1                                   |
|   \\  /    A nd           | Web:      www.OpenFOAM.org                      |
|    \\/     M anipulation  |                                                 |
\*---------------------------------------------------------------------------*/
FoamFile
{
    version     2.0;
    format      ascii;
    class       volScalarField;
    location    "10.8";
    object      p;
}
// * * * * * * * * * * * * * * * * * * * * * * * * * * * * * * * * * * * * * //

dimensions      [0 2 -2 0 0 0 0];

internalField   nonuniform List<scalar> 
2000
(
0.0785796
0.0873885
0.0963453
0.104788
0.111764
0.117017
0.120934
0.122619
0.124222
0.118586
0.0616733
0.0739117
0.085099
0.0953034
0.103929
0.110902
0.116463
0.120555
0.123985
0.124037
0.0403143
0.0567212
0.0703566
0.0825931
0.0935357
0.103197
0.111705
0.119126
0.125753
0.131135
0.0144095
0.0356093
0.0519612
0.0669597
0.0815029
0.0952434
0.107882
0.119257
0.129732
0.138246
-0.0156315
0.0108732
0.0304362
0.0496616
0.0695938
0.0888445
0.106476
0.122265
0.136247
0.147962
-0.0482795
-0.0163873
0.00751794
0.0331124
0.0602347
0.0860169
0.109086
0.12925
0.1467
0.161462
-0.0808808
-0.0440756
-0.0137149
0.0205299
0.0560476
0.0887098
0.117131
0.141451
0.162141
0.179868
-0.109612
-0.0688422
-0.029446
0.0151684
0.0593832
0.0985922
0.131902
0.159941
0.183656
0.204185
-0.130207
-0.0862207
-0.0359407
0.0197029
0.0720946
0.117052
0.154519
0.185703
0.212033
0.234846
-0.138737
-0.091684
-0.0299009
0.0361163
0.0955148
0.145132
0.185873
0.21951
0.247859
0.272159
0.144318
0.139003
0.136005
0.132962
0.129413
0.12543
0.12107
0.116346
0.111178
0.105357
0.142055
0.137181
0.1344
0.131492
0.128072
0.124231
0.120038
0.115551
0.110723
0.105072
0.137911
0.133907
0.131544
0.128958
0.125863
0.122371
0.11857
0.114568
0.110423
0.105303
0.132586
0.129731
0.128025
0.126023
0.123526
0.120666
0.117547
0.114282
0.111116
0.107392
0.126763
0.125183
0.124395
0.123287
0.121703
0.119777
0.117643
0.115347
0.113384
0.111712
0.120888
0.120595
0.12098
0.121083
0.120701
0.119934
0.118938
0.117831
0.117198
0.118163
0.115011
0.11601
0.117778
0.119358
0.120398
0.120902
0.121071
0.121068
0.121107
0.126327
0.108705
0.111123
0.114436
0.11769
0.120266
0.122052
0.123311
0.124309
0.124
0.133333
0.101184
0.105279
0.110301
0.115302
0.11942
0.122384
0.124518
0.12624
0.125903
0.135605
0.0914889
0.0976249
0.104532
0.111283
0.116825
0.120873
0.12379
0.125349
0.125979
0.129427
0.0988315
0.0919622
0.0845795
0.0767255
0.0684845
0.059959
0.0512801
0.0426059
0.0341179
0.0260152
0.0185073
0.0118037
0.00609795
0.00155007
-0.0017192
-0.00360529
-0.00396043
-0.00273907
-0.000725072
0.000109512
0.097949
0.0910903
0.083714
0.0758045
0.0674699
0.0588165
0.049977
0.0411134
0.0324132
0.0240841
0.0163478
0.00942967
0.00354203
-0.00113589
-0.0044543
-0.0062818
-0.00651043
-0.00515925
-0.00277497
-0.000758903
0.0970821
0.0902489
0.082908
0.0748977
0.0663867
0.0574946
0.0483551
0.0391348
0.0300293
0.0212589
0.0130641
0.00569793
-0.000588715
-0.0055725
-0.00907476
-0.0109044
-0.0108921
-0.00927637
-0.00622809
-0.00226433
0.0972236
0.090613
0.0833679
0.0752436
0.0665076
0.0573137
0.0477951
0.0381188
0.0284864
0.0191293
0.0103048
0.00229103
-0.00461873
-0.010144
-0.0140348
-0.016094
-0.0161386
-0.0139893
-0.010039
-0.00406541
0.0997737
0.0927432
0.0857387
0.0776104
0.0686633
0.0591745
0.0492926
0.0391704
0.0290042
0.0190309
0.00951991
0.000770126
-0.00686416
-0.0130958
-0.0175879
-0.0200399
-0.0202021
-0.017893
-0.0132509
-0.00583945
0.104187
0.0962439
0.08969
0.0818397
0.0727688
0.0630409
0.0528956
0.0424445
0.031855
0.0213692
0.0112719
0.00187593
-0.00647852
-0.0134328
-0.0186117
-0.0216468
-0.022209
-0.0200071
-0.0149678
-0.00679067
0.109233
0.0999554
0.0942229
0.087083
0.078054
0.0681888
0.0579365
0.0473334
0.0364858
0.025645
0.015116
0.00522323
-0.00368489
-0.0112284
-0.017015
-0.0206383
-0.021729
-0.0199017
-0.0148829
-0.00655777
0.113703
0.102909
0.0983658
0.0922461
0.0834084
0.0735904
0.0634632
0.0529257
0.0420192
0.0310235
0.020264
0.0100686
0.000784512
-0.00719165
-0.0134642
-0.0175982
-0.0192376
-0.017956
-0.0134718
-0.00578037
0.116239
0.105573
0.102671
0.0972848
0.0886459
0.079136
0.0692891
0.0588448
0.0479068
0.0368369
0.0259681
0.015621
0.00612484
-0.00211469
-0.00872803
-0.0132711
-0.015452
-0.0148799
-0.0113343
-0.00478547
0.112691
0.107774
0.106297
0.1006
0.0928649
0.0847052
0.0757864
0.065863
0.0552324
0.0443231
0.0334686
0.0230088
0.013275
0.00469211
-0.00239108
-0.00752279
-0.010446
-0.0107931
-0.00850149
-0.00361048
0.12033
0.119805
0.112531
0.103917
0.0957415
0.0874821
0.0784721
0.0686368
0.0582475
0.0476531
0.0371416
0.0270342
0.0176243
0.00929617
0.00234611
-0.00284319
-0.00607075
-0.00710492
-0.00589467
-0.00258994
0.118087
0.117093
0.110658
0.102741
0.0949367
0.0869504
0.078303
0.0689539
0.0591324
0.049152
0.0392801
0.0298065
0.0209859
0.0131381
0.00651326
0.00140109
-0.00202942
-0.00365422
-0.00342159
-0.00162349
0.120108
0.116517
0.110809
0.103738
0.0961031
0.0880514
0.079475
0.0703961
0.0609837
0.0514886
0.0421404
0.0331871
0.0248435
0.0173648
0.0109515
0.00581645
0.00208262
-0.000188815
-0.00101104
-0.000658813
0.124753
0.118711
0.112858
0.106134
0.0985187
0.0903026
0.0816657
0.0727204
0.0635909
0.0544568
0.0454985
0.0369212
0.0289006
0.0216412
0.0152925
0.0100187
0.00588346
0.00293591
0.00108094
0.000173384
0.130864
0.123081
0.116327
0.109302
0.101517
0.0931224
0.0843813
0.0754714
0.0665037
0.0576061
0.0489092
0.0405784
0.0327507
0.0255939
0.0192083
0.0137308
0.009166
0.00558063
0.00281301
0.000857304
0.13807
0.128811
0.120797
0.113069
0.104945
0.0963471
0.0874709
0.0785136
0.0695925
0.0608093
0.052254
0.0440557
0.036313
0.0291661
0.0226721
0.0169527
0.0119659
0.00780216
0.00425446
0.00141245
0.145697
0.13513
0.125877
0.117315
0.108734
0.099878
0.0908271
0.0817571
0.0727902
0.0640191
0.0555044
0.047344
0.0396012
0.0323925
0.0257415
0.019758
0.0143702
0.00968137
0.00546246
0.0018556
0.153193
0.141618
0.131317
0.121926
0.112812
0.10363
0.0943577
0.0851246
0.0760455
0.0672085
0.0586552
0.0504576
0.04265
0.035326
0.0284858
0.0222259
0.0164591
0.0112886
0.00648595
0.00221256
0.16043
0.14811
0.136944
0.126774
0.117089
0.107527
0.0979917
0.0885576
0.0793207
0.0703616
0.0617101
0.0534178
0.0454969
0.0380191
0.0309688
0.0244265
0.0183013
0.0126865
0.00737076
0.00250931
0.167421
0.154499
0.142597
0.131716
0.121464
0.111494
0.101665
0.0920033
0.0825783
0.0734589
0.0646671
0.0562381
0.0481692
0.0405108
0.0332381
0.0264134
0.0199497
0.0139243
0.0081509
0.00276374
0.174102
0.160661
0.148131
0.136618
0.125829
0.115448
0.105311
0.0954057
0.0857745
0.0764711
0.0675117
0.0589181
0.0506783
0.0428231
0.0353228
0.0282211
0.0214389
0.0150342
0.00884781
0.00298675
0.180345
0.166484
0.153427
0.141362
0.13008
0.119303
0.108859
0.0987042
0.0888587
0.0793597
0.0702181
0.0614442
0.0530212
0.0449621
0.0372359
0.0298674
0.0227878
0.0160341
0.00947359
0.0031849
0.186049
0.171876
0.158391
0.145848
0.134121
0.122974
0.112233
0.101833
0.0917754
0.0820792
0.0727517
0.0637928
0.0551837
0.046922
0.0389777
0.0313574
0.0240031
0.016931
0.0100337
0.00336121
0.19115
0.176764
0.162936
0.149983
0.13786
0.126374
0.115358
0.104727
0.0944664
0.0845806
0.0750727
0.0659332
0.0571438
0.0486883
0.0405395
0.0326867
0.0250836
0.0177261
0.0105291
0.00351605
0.195604
0.181077
0.166982
0.153682
0.141215
0.129427
0.118162
0.107322
0.0968763
0.0868156
0.0771403
0.0678328
0.0588758
0.0502422
0.0419078
0.0338451
0.0260232
0.0184146
0.010958
0.00364852
0.199371
0.184756
0.170456
0.156875
0.144114
0.132067
0.120587
0.109564
0.0989564
0.0887416
0.0789176
0.0694607
0.0603552
0.0515653
0.0430699
0.0348317
0.0268162
0.0189936
0.0113179
0.00375792
0.202419
0.187749
0.1733
0.159496
0.146498
0.134239
0.122582
0.111409
0.100666
0.0903227
0.0803737
0.070791
0.0615609
0.0526401
0.0440092
0.0356202
0.0274536
0.0194585
0.0116062
0.00384453
0.204738
0.190027
0.175464
0.16149
0.148312
0.135891
0.124101
0.112815
0.10197
0.0915276
0.0814818
0.0718015
0.0624746
0.0534525
0.0447175
0.0362155
0.0279331
0.0198067
0.0118215
0.0039088
0.206379
0.19162
0.176955
0.162847
0.149535
0.137001
0.125121
0.113759
0.102847
0.0923375
0.0822257
0.072479
0.0630855
0.0539944
0.0451902
0.0366129
0.0282517
0.0200373
0.0119633
0.00395082
0.207371
0.192566
0.177806
0.163592
0.150188
0.137584
0.125652
0.114248
0.103298
0.0927533
0.0826058
0.0728244
0.0633956
0.0542691
0.045428
0.0368128
0.0284111
0.0201532
0.0120338
0.00397275
0.291329
0.253683
0.221851
0.195644
0.174881
0.158704
0.14629
0.135863
0.127948
0.112897
0.306904
0.269902
0.238174
0.211143
0.188845
0.169764
0.15461
0.139062
0.129776
0.113895
0.3208
0.284812
0.253696
0.226243
0.203108
0.181621
0.164902
0.146648
0.137518
0.122482
0.333116
0.298112
0.267615
0.239844
0.216388
0.193703
0.176739
0.158108
0.147822
0.131915
0.34397
0.309827
0.279884
0.252005
0.228553
0.205567
0.188322
0.169321
0.15664
0.139988
0.353545
0.320212
0.290812
0.263076
0.239684
0.216601
0.198521
0.178933
0.164627
0.148047
0.362022
0.329492
0.300625
0.273178
0.249752
0.226586
0.207723
0.187992
0.173129
0.156572
0.369553
0.337807
0.309437
0.282335
0.258868
0.235773
0.21657
0.197008
0.181824
0.164954
0.376248
0.345243
0.317336
0.290621
0.267214
0.244345
0.225058
0.205586
0.19
0.172866
0.382181
0.351866
0.324408
0.29811
0.274859
0.252243
0.232905
0.213442
0.197524
0.180387
0.387414
0.357733
0.330712
0.304837
0.281776
0.259394
0.240014
0.220633
0.20452
0.187545
0.392005
0.362904
0.336286
0.310819
0.287948
0.265813
0.246432
0.227241
0.21099
0.194207
0.395985
0.367435
0.341173
0.316087
0.293401
0.271542
0.252191
0.233231
0.216841
0.200237
0.399367
0.37134
0.345403
0.320682
0.298169
0.2766
0.257279
0.23854
0.222015
0.205573
0.40218
0.374622
0.348985
0.32462
0.302271
0.280981
0.261683
0.243144
0.226499
0.210197
0.404449
0.377308
0.351948
0.32792
0.305721
0.284685
0.265406
0.247042
0.230294
0.214098
0.406204
0.379435
0.354327
0.330599
0.308536
0.28772
0.268463
0.250239
0.233395
0.217259
0.407469
0.381027
0.356145
0.332674
0.310739
0.290107
0.270876
0.252754
0.235819
0.219684
0.408216
0.382055
0.35738
0.334134
0.312334
0.29186
0.272675
0.254625
0.237621
0.221437
0.408406
0.382435
0.35791
0.334831
0.313157
0.292812
0.273695
0.255715
0.238703
0.222488
0.868457
0.870871
0.865679
0.853932
0.836477
0.812666
0.779649
0.733304
0.674393
0.639262
0.816618
0.814711
0.80108
0.782095
0.758621
0.728312
0.687372
0.631502
0.561568
0.518199
0.759622
0.751803
0.731467
0.70675
0.677746
0.641028
0.592397
0.527626
0.44756
0.396965
0.694106
0.681632
0.657294
0.628655
0.595046
0.552576
0.497067
0.424676
0.335906
0.279938
0.624911
0.608683
0.581567
0.549951
0.512508
0.465151
0.403873
0.325649
0.230331
0.171891
0.556135
0.536484
0.507184
0.473214
0.432676
0.381415
0.315552
0.233082
0.135783
0.0767224
0.489844
0.46717
0.436355
0.400769
0.358041
0.304084
0.235254
0.150271
0.0560916
-0.00284014
0.427347
0.402267
0.370824
0.334533
0.290706
0.235446
0.165765
0.0814363
-0.00762004
-0.0647278
0.369746
0.343098
0.312261
0.276163
0.232109
0.177198
0.108958
0.0281543
-0.0537945
-0.107775
0.316757
0.291566
0.261753
0.22644
0.183442
0.130454
0.0656898
-0.00892714
-0.0816092
-0.132025
1.1542
1.16805
1.18344
1.20037
1.21879
1.2385
1.25889
1.27827
1.2952
1.31617
1.15118
1.1643
1.17911
1.19541
1.21305
1.23179
1.25101
1.26895
1.2842
1.30411
1.14481
1.15646
1.17015
1.18522
1.2013
1.21813
1.23498
1.25005
1.26209
1.27971
1.13449
1.14395
1.15599
1.16926
1.18307
1.19707
1.21045
1.22127
1.2286
1.24273
1.11943
1.12599
1.13592
1.14687
1.15774
1.16808
1.17695
1.18224
1.18336
1.19288
1.09876
1.10174
1.10912
1.11731
1.12465
1.13057
1.134
1.13259
1.12613
1.12997
1.07168
1.0705
1.07505
1.08013
1.0834
1.08421
1.08133
1.07218
1.05686
1.05406
1.03689
1.03105
1.03285
1.03476
1.0336
1.02875
1.0189
1.00116
0.975888
0.965651
0.993953
0.983713
0.983343
0.981719
0.97548
0.964433
0.947088
0.920114
0.884022
0.865799
0.937442
0.927835
0.927035
0.92146
0.909639
0.892084
0.8669
0.830268
0.782789
0.756211
1.00233
1.0072
1.01269
1.01844
1.0242
1.03
1.0359
1.04196
1.04821
1.05471
1.06146
1.06848
1.07583
1.08356
1.09175
1.10044
1.10971
1.11964
1.13031
1.1418
1.00233
1.00724
1.01272
1.01843
1.02416
1.02992
1.03579
1.04181
1.04803
1.05448
1.06115
1.06809
1.07534
1.08297
1.09101
1.09953
1.10858
1.11825
1.12857
1.13964
1.00237
1.0073
1.01273
1.01837
1.02403
1.02973
1.03553
1.04147
1.04758
1.05393
1.06047
1.06724
1.07428
1.08166
1.0894
1.09756
1.10616
1.11526
1.12485
1.13503
1.00241
1.00736
1.0127
1.01823
1.02379
1.02939
1.03509
1.04091
1.04689
1.05299
1.05927
1.06576
1.07248
1.07945
1.0867
1.09424
1.10209
1.11027
1.11867
1.12739
1.00245
1.0074
1.0126
1.01796
1.02337
1.02881
1.03431
1.03993
1.04568
1.05149
1.0574
1.06347
1.06969
1.07606
1.08257
1.08921
1.09595
1.10275
1.1094
1.11594
1.00246
1.00738
1.0124
1.01752
1.0227
1.02792
1.0332
1.03855
1.04391
1.04927
1.05469
1.06017
1.06569
1.07121
1.07669
1.08206
1.08723
1.09212
1.09634
1.09984
1.00242
1.00726
1.01205
1.01686
1.02172
1.02662
1.03161
1.03654
1.04136
1.04616
1.05095
1.05566
1.06025
1.06463
1.06871
1.07237
1.07545
1.07771
1.07872
1.07815
1.00229
1.00692
1.01138
1.01582
1.0204
1.02498
1.02941
1.03372
1.03796
1.04209
1.04607
1.04979
1.05317
1.05608
1.05839
1.05985
1.06029
1.05917
1.05608
1.05009
1.00211
1.00641
1.01057
1.01461
1.01858
1.02253
1.02642
1.03017
1.03373
1.03703
1.04
1.04248
1.04438
1.04543
1.0455
1.04409
1.04123
1.03594
1.02835
1.01551
1.00193
1.0056
1.00911
1.0126
1.01611
1.01957
1.02288
1.02594
1.02866
1.03093
1.03265
1.0336
1.0337
1.03248
1.02997
1.02508
1.01823
1.00653
0.992284
0.96818
1.00139
1.00449
1.00745
1.01029
1.01312
1.01587
1.0184
1.02055
1.02224
1.0233
1.02365
1.02296
1.02115
1.01756
1.0122
1.00357
0.992129
0.973773
0.950164
0.908121
1.00109
1.00325
1.00532
1.00749
1.00971
1.01178
1.01354
1.01481
1.01548
1.01537
1.01441
1.01221
1.0087
1.00311
0.995552
0.98434
0.97018
0.949285
0.92448
0.889146
1.00113
1.00206
1.0029
1.00428
1.00588
1.00733
1.00836
1.00874
1.00841
1.00716
1.00496
1.00136
0.996359
0.989109
0.979865
0.966934
0.951359
0.929853
0.905746
0.872951
1.00043
1.0008
1.00074
1.00107
1.00192
1.00276
1.00309
1.00258
1.00123
0.998856
0.995465
0.990576
0.984236
0.975562
0.964953
0.950748
0.934269
0.912336
0.88855
0.856683
0.999398
0.998951
0.997632
0.997034
0.997483
0.997998
0.997746
0.996378
0.994018
0.990565
0.986065
0.979999
0.972469
0.962572
0.95085
0.935649
0.918493
0.896214
0.872637
0.841729
1.00106
0.997723
0.993296
0.991906
0.992558
0.993137
0.992441
0.990233
0.986887
0.982408
0.976889
0.969759
0.961176
0.950231
0.937585
0.921601
0.903933
0.881497
0.858183
0.828317
0.998577
0.994155
0.988432
0.986729
0.987936
0.988728
0.987523
0.984369
0.980002
0.974543
0.96808
0.959985
0.950457
0.938605
0.925178
0.908592
0.890548
0.868126
0.845091
0.816212
1.00052
0.991598
0.982175
0.981079
0.983855
0.985102
0.983208
0.978922
0.973487
0.967092
0.959754
0.950773
0.940381
0.927738
0.913645
0.896604
0.87828
0.855981
0.833197
0.805239
0.998446
0.985135
0.974776
0.976189
0.981293
0.982884
0.97991
0.97424
0.967663
0.960335
0.952129
0.942287
0.931072
0.917722
0.903039
0.885647
0.867098
0.844982
0.822407
0.79531
0.998976
0.980436
0.968254
0.972715
0.980021
0.981315
0.976937
0.969966
0.962403
0.954222
0.945166
0.934498
0.922515
0.908549
0.893354
0.875699
0.856963
0.835062
0.812662
0.786355
1.00176
0.988325
0.979666
0.981946
0.984246
0.981317
0.974551
0.966411
0.958029
0.948987
0.939001
0.927483
0.914761
0.900253
0.884607
0.866749
0.847851
0.826172
0.803918
0.778312
0.993972
1.00239
1.01269
1.00917
0.997522
0.984845
0.973937
0.96439
0.955116
0.945029
0.933923
0.921451
0.907966
0.892939
0.876873
0.858832
0.83978
0.818292
0.796158
0.771141
1.00149
1.02471
1.04013
1.02943
1.00711
0.98704
0.972904
0.962336
0.952422
0.941469
0.929365
0.916045
0.901897
0.886438
0.870022
0.851835
0.832661
0.811336
0.789316
0.764771
1.00525
1.03528
1.05262
1.03862
1.01112
0.987121
0.971167
0.960036
0.949709
0.93811
0.925227
0.911236
0.896552
0.880741
0.864038
0.845731
0.826464
0.805267
0.783359
0.759178
1.00586
1.03879
1.05761
1.04155
1.01107
0.985198
0.968616
0.95731
0.946708
0.93468
0.921299
0.906881
0.891814
0.875734
0.858799
0.840404
0.82107
0.799997
0.778189
0.754327
1.00064
1.03349
1.05665
1.04144
1.00978
0.983193
0.966117
0.954288
0.943248
0.93098
0.917426
0.902874
0.887581
0.871316
0.854197
0.835763
0.816383
0.795465
0.773732
0.750201
0.981469
0.989974
1.01412
1.01507
1.00011
0.981626
0.965523
0.952093
0.939891
0.927467
0.914114
0.899533
0.884092
0.867684
0.850396
0.831939
0.812521
0.791764
0.770083
0.746864
0.99939
0.959814
0.933928
0.94775
0.967526
0.972013
0.962734
0.948858
0.935545
0.923124
0.910388
0.89646
0.881214
0.864788
0.847402
0.828954
0.809534
0.78893
0.767316
0.744343
1.00215
0.960843
0.927723
0.937429
0.958707
0.965979
0.959108
0.946675
0.933749
0.921248
0.90841
0.894479
0.879271
0.862864
0.84543
0.826982
0.807556
0.787056
0.765508
0.742723
0.980215
0.989784
1.01106
1.00314
0.982262
0.966243
0.955729
0.945758
0.934275
0.921492
0.907918
0.893593
0.878309
0.861927
0.844481
0.826021
0.806578
0.786127
0.764624
0.741985
0.861398
0.806573
0.750798
0.690182
0.625577
0.561202
0.499283
0.440428
0.38536
0.335082
0.853696
0.797542
0.738917
0.681292
0.621063
0.560328
0.502064
0.446855
0.39549
0.348859
0.840812
0.787299
0.728123
0.672883
0.617394
0.560624
0.505619
0.453639
0.405432
0.36106
0.82714
0.777716
0.719573
0.66558
0.613775
0.56085
0.508862
0.459575
0.41394
0.371663
0.814012
0.768333
0.712199
0.659235
0.610196
0.560874
0.511847
0.464902
0.421443
0.380978
0.801736
0.759237
0.705691
0.653962
0.60696
0.560731
0.514544
0.469744
0.428129
0.389213
0.790355
0.750525
0.699777
0.649566
0.60415
0.560449
0.516887
0.474119
0.434108
0.396525
0.779862
0.742277
0.694332
0.645876
0.601818
0.560131
0.51889
0.47804
0.439469
0.40305
0.770238
0.734541
0.68929
0.642739
0.599941
0.559851
0.520578
0.481503
0.444255
0.408876
0.761458
0.727339
0.684604
0.640024
0.598452
0.559645
0.52199
0.484508
0.448485
0.414056
0.753506
0.720692
0.680243
0.637617
0.597257
0.559509
0.523156
0.487061
0.452168
0.418622
0.746388
0.714638
0.676196
0.635426
0.596254
0.559412
0.524094
0.489176
0.455301
0.422598
0.740074
0.709185
0.672447
0.633367
0.59534
0.559306
0.524817
0.490877
0.457883
0.425921
0.734555
0.704338
0.668991
0.631392
0.594439
0.559147
0.52534
0.492209
0.459981
0.428718
0.729739
0.700011
0.665789
0.629476
0.593519
0.558915
0.525683
0.493221
0.461668
0.431069
0.725537
0.696133
0.662844
0.627658
0.592609
0.558631
0.525879
0.493956
0.462962
0.432931
0.722026
0.692799
0.660257
0.626023
0.591755
0.558312
0.525943
0.494442
0.463889
0.434329
0.719334
0.690159
0.658128
0.624596
0.590925
0.557899
0.525828
0.494656
0.464458
0.43529
0.717611
0.688399
0.656601
0.62343
0.590085
0.557306
0.525436
0.49451
0.464603
0.435774
0.716879
0.687655
0.655907
0.622791
0.589476
0.556723
0.524897
0.494076
0.464318
0.4357
)
;

boundaryField
{
    bottom
    {
        type            symmetryPlane;
    }
    right
    {
        type            fixedValue;
        value           uniform 0;
    }
    top
    {
        type            symmetryPlane;
    }
    left
    {
        type            fixedValue;
        value           uniform 1;
    }
    cylinder
    {
        type            zeroGradient;
    }
    defaultFaces
    {
        type            empty;
    }
}


// ************************************************************************* //
