/*--------------------------------*- C++ -*----------------------------------*\
| =========                 |                                                 |
| \\      /  F ield         | OpenFOAM: The Open Source CFD Toolbox           |
|  \\    /   O peration     | Version:  4.1                                   |
|   \\  /    A nd           | Web:      www.OpenFOAM.org                      |
|    \\/     M anipulation  |                                                 |
\*---------------------------------------------------------------------------*/
FoamFile
{
    version     2.0;
    format      ascii;
    class       surfaceScalarField;
    location    "10.8";
    object      phi;
}
// * * * * * * * * * * * * * * * * * * * * * * * * * * * * * * * * * * * * * //

dimensions      [0 3 -1 0 0 0 0];

internalField   nonuniform List<scalar> 
3890
(
0.000202421
0.00209683
-0.00229925
0.00183321
0.00109638
-0.00272717
0.00556897
-0.00336303
-0.00037273
0.0118006
-0.0102729
0.00404128
0.020489
-0.0186138
0.00992535
0.0311651
-0.0273451
0.016669
0.0430931
-0.0356181
0.0236901
0.0556397
-0.0429002
0.0303536
0.0681326
-0.0493107
0.0368177
-0.0535794
0.0419106
0.0798014
0.000458113
0.00163871
0.00299068
-0.00143619
0.00832339
-0.00869574
0.0165685
-0.018518
0.0271119
-0.0291572
0.0389171
-0.0391504
0.0509497
-0.0476507
0.0624723
-0.0544228
0.0727472
-0.0595856
-0.063158
0.0823258
0.00082839
0.000810324
0.00449882
-0.00510661
0.0115579
-0.0157548
0.0214533
-0.0284134
0.0328291
-0.040533
0.0442845
-0.0506058
0.0548576
-0.0582238
0.0640911
-0.0636563
0.0719815
-0.067476
-0.0701664
0.0789899
0.00130651
-0.000496182
0.00625835
-0.0100585
0.0148259
-0.0243224
0.025492
-0.0390795
0.0363819
-0.0514228
0.0462235
-0.0604474
0.0545335
-0.0665338
0.061423
-0.0705458
0.0672703
-0.0733233
-0.075421
0.0725249
0.00187451
-0.0023707
0.00807571
-0.0162597
0.0175302
-0.0337769
0.0278514
-0.0494007
0.037211
-0.0607824
0.0449029
-0.0681393
0.0510413
-0.0726723
0.0560954
-0.0755998
0.0605513
-0.0777793
-0.0797321
0.0648624
0.00249826
-0.00486896
0.00966751
-0.0234289
0.0191409
-0.0432503
0.0282076
-0.0584673
0.035593
-0.0681679
0.041241
-0.0737872
0.0456452
-0.0770765
0.0493645
-0.0793191
0.0528236
-0.0812384
-0.0831391
0.0562306
0.00310835
-0.00797731
0.0107382
-0.0310587
0.0194225
-0.0519346
0.0267691
-0.0658138
0.0322096
-0.0736085
0.0361442
-0.0777218
0.0391991
-0.0801314
0.0418721
-0.0819921
0.0444443
-0.0838106
-0.0857354
0.0470405
0.00360833
-0.0115856
0.0110953
-0.0385457
0.0184616
-0.059301
0.0239942
-0.0713464
0.0277123
-0.0773266
0.0302469
-0.0802564
0.0322044
-0.0820889
0.0339625
-0.0837502
0.0356932
-0.0855412
-0.087486
0.0374438
0.00390288
-0.0154885
0.0107004
-0.0453433
0.0165198
-0.0651203
0.0203454
-0.075172
0.0225927
-0.0795739
0.0239611
-0.0816248
0.0249633
-0.0830911
0.0258601
-0.084647
0.0267373
-0.0864185
-0.0883612
0.0276125
0.00393402
-0.0194225
0.00967076
-0.05108
0.0139044
-0.069354
0.0162022
-0.0774698
0.0171971
-0.0805689
0.0175544
-0.081982
0.0176731
-0.0832098
0.0177203
-0.0846942
0.0177372
-0.0864354
0.0177228
-0.0883469
-0.000704171
0.000704171
-0.00212208
0.00141791
-0.00392119
0.00179911
-0.00592875
0.00200755
-0.00805882
0.00213007
-0.0102776
0.00221876
-0.0125814
0.00230384
-0.0149836
0.00240216
-0.0175102
0.00252659
0.00269211
-0.0202023
-0.000622011
0.00132618
-0.00188741
0.00268331
-0.00349296
0.00340466
-0.00526461
0.00377921
-0.00710744
0.0039729
-0.00897514
0.00408645
-0.0108513
0.00417996
-0.0127387
0.00428962
-0.0146545
0.00444238
0.00467598
-0.0166384
-0.000478354
0.00180454
-0.00147775
0.00368271
-0.00273561
0.00466252
-0.00408365
0.00512725
-0.00541569
0.00530494
-0.00666544
0.0053362
-0.00779343
0.00530795
-0.00878227
0.00527845
-0.00963207
0.00529218
0.00540774
-0.0103638
-0.00031234
0.00211688
-0.000986738
0.0043571
-0.00180957
0.00548535
-0.00262397
0.00594165
-0.00331717
0.00599814
-0.00380487
0.00582391
-0.00402061
0.00552369
-0.00391713
0.00517498
-0.00346632
0.00484137
0.00463186
-0.00269045
-0.00016342
0.0022803
-0.000515344
0.00470903
-0.000883124
0.00585313
-0.00112417
0.00618269
-0.00112578
0.00599975
-0.000793497
0.00549162
-4.09632e-05
0.00477115
0.001219
0.00391502
0.00306191
0.00299846
0.00218049
0.00551327
-6.0702e-05
0.002341
-0.000136086
0.00478441
-7.21805e-05
0.00578923
0.000269029
0.00584148
0.00100512
0.00526366
0.00224141
0.00425533
0.00408068
0.00293189
0.00662178
0.00137392
0.00995735
-0.000337108
-0.0022572
0.014395
-1.46061e-05
0.00235561
0.000128438
0.00464137
0.000604144
0.00531352
0.00157282
0.00487281
0.00317856
0.00365791
0.00555586
0.00187804
0.00882206
-0.000334318
0.0130799
-0.00288392
0.0183387
-0.00559595
-0.00912298
0.0252045
-5.73122e-06
0.00236134
0.000330613
0.00430502
0.00126245
0.00438169
0.00300891
0.00312634
0.00577384
0.000892987
0.00973248
-0.0020806
0.0150036
-0.00560543
0.0216081
-0.00948846
0.0294385
-0.0134263
-0.0187106
0.0390261
4.1327e-06
0.0023572
0.000589563
0.00371959
0.00213903
0.00283222
0.00496819
0.000297177
0.00934355
-0.00348237
0.0154185
-0.0081556
0.023205
-0.0133919
0.0324942
-0.0187777
0.043174
-0.0241061
-0.0302565
0.0547198
5.79574e-05
0.00105038
0.00350988
0.00784834
0.0142913
0.0228048
0.033103
0.0446789
0.0573906
0.0690448
-0.0219797
0.00177742
-0.0237501
0.00177044
-0.0254837
0.00173353
-0.0271679
0.0016842
-0.0287889
0.00162099
-0.0303307
0.0015418
-0.0317759
0.00144526
-0.0331066
0.00133066
-0.0343045
0.00119791
-0.0353521
0.00104763
-0.0362333
0.000881214
-0.0369344
0.000701076
-0.0374453
0.000510903
-0.0377598
0.000314448
-0.0378755
0.000115733
-0.0378005
-7.49745e-05
-0.0375554
-0.000245165
-0.0371639
-0.000391441
-0.0366484
-0.000515543
-0.0006023
-0.0181916
0.00333068
-0.0197666
0.00334539
-0.0213337
0.00330065
-0.0228828
0.00323334
-0.0244027
0.00314088
-0.0258794
0.00301845
-0.0272968
0.00286271
-0.0286376
0.00267146
-0.0298834
0.00244366
-0.0310152
0.00217948
-0.0320145
0.00188046
-0.0328632
0.00154981
-0.0335454
0.0011931
-0.0340492
0.000818274
-0.0343667
0.000433216
-0.0344891
4.7388e-05
-0.0344339
-0.00030039
-0.0342212
-0.000604071
-0.0338839
-0.00085284
-0.0010181
-0.0114887
0.00445551
-0.012668
0.00452477
-0.0138828
0.00451543
-0.0151258
0.00447635
-0.0163909
0.00440599
-0.017669
0.0042965
-0.018948
0.00414169
-0.0202137
0.00393725
-0.0214504
0.00368033
-0.0226403
0.00336933
-0.0237639
0.00300407
-0.0248003
0.00258624
-0.0257274
0.00212021
-0.0265239
0.0016148
-0.0271719
0.00108119
-0.0276574
0.000532913
-0.0279463
-1.15468e-05
-0.0280691
-0.000481228
-0.0280525
-0.000869501
-0.00111098
-0.00321464
0.00497971
-0.00385318
0.00516331
-0.00456177
0.00522401
-0.00533241
0.005247
-0.00616823
0.0052418
-0.00706758
0.00519585
-0.00802418
0.00509829
-0.00902978
0.00494285
-0.0100748
0.00472533
-0.0111477
0.00444226
-0.0122347
0.00409103
-0.013319
0.00367059
-0.0143802
0.00318145
-0.0153952
0.00262971
-0.0163392
0.00202521
-0.0171863
0.00138002
-0.0179099
0.000712056
-0.0184458
5.46846e-05
-0.0188335
-0.00048176
-0.000823335
0.00557554
0.00491744
0.00549557
0.00524328
0.00533134
0.00538824
0.00509978
0.00547856
0.00478744
0.00555414
0.00438688
0.00559641
0.00389921
0.00558597
0.00332721
0.00551484
0.00267346
0.00537908
0.00194164
0.00517408
0.00113745
0.00489521
0.000268677
0.00453936
-0.000656852
0.00410698
-0.00162589
0.00359875
-0.00261945
0.00301877
-0.00361649
0.00237706
-0.00458789
0.00168346
-0.00549289
0.000959683
-0.0062432
0.000268543
-0.000222302
0.0148739
0.00443862
0.0151962
0.00492094
0.0154512
0.00513321
0.015665
0.00526483
0.0158138
0.00540531
0.0158834
0.00552684
0.015872
0.00559738
0.015778
0.00560879
0.0155975
0.00555956
0.0153269
0.00544471
0.0149641
0.00525805
0.0145085
0.00499495
0.0139617
0.00465378
0.0133258
0.0042346
0.012604
0.00374056
0.0118038
0.00317733
0.0109313
0.00255591
0.0100125
0.00187846
0.00909703
0.00118406
0.000565302
0.0257471
0.00389608
0.026178
0.00449001
0.0265988
0.00471238
0.0270307
0.00483292
0.0274365
0.00499957
0.0278024
0.0051609
0.0281278
0.00527202
0.0284064
0.00533014
0.0286281
0.00533784
0.0287838
0.00528901
0.028866
0.00517583
0.0288686
0.00499243
0.0287855
0.00473688
0.0286123
0.00440779
0.0283429
0.00400994
0.0279743
0.00354593
0.027497
0.00303324
0.0269151
0.00246036
0.0262108
0.00188831
0.00125109
0.0392541
0.00366812
0.0395143
0.00422977
0.0398781
0.00434859
0.0403018
0.00440923
0.0407401
0.00456121
0.0411971
0.00470393
0.0416725
0.0047966
0.042153
0.00484969
0.0426236
0.00486724
0.0430728
0.00483979
0.0434897
0.00475897
0.0438645
0.00461765
0.044186
0.00441532
0.0444468
0.00414703
0.0446337
0.00382299
0.0447422
0.00343748
0.0447494
0.00302604
0.0446661
0.00254368
0.0444309
0.00212348
0.00154623
0.054619
0.003769
0.0547908
0.00405796
0.0551803
0.00395913
0.0556117
0.00397778
0.0560744
0.00409851
0.0565907
0.00418768
0.0571502
0.00423709
0.0577376
0.00426225
0.058344
0.00426084
0.0589634
0.00422043
0.0595865
0.00413579
0.0602061
0.00399812
0.0608098
0.00381159
0.0613922
0.00356463
0.061936
0.00327918
0.0624433
0.00293018
0.0628836
0.00258573
0.0632667
0.00216062
0.0635376
0.00185259
0.00135954
0.0694112
0.00340253
0.0702007
0.0032685
0.0709106
0.00324924
0.0715604
0.00332795
0.0722353
0.00342361
0.0729289
0.00349414
0.0736293
0.00353668
0.0743416
0.00354994
0.0750708
0.00353163
0.0758202
0.00347105
0.0765868
0.0033691
0.0773717
0.00321322
0.0781664
0.0030169
0.0789725
0.00275854
0.0797731
0.0024786
0.0805746
0.00212872
0.0813483
0.001812
0.0821118
0.00139712
0.0828263
0.0011381
0.000693951
0.0953076
0.00428399
-0.096189
0.0943771
0.00419893
0.0935628
0.00406359
0.0929121
0.00397864
0.0924123
0.0039234
0.0920376
0.00386881
0.0917662
0.0038081
0.0915847
0.00373147
0.0914804
0.00363593
0.0914435
0.00350793
0.0914593
0.00335335
0.0915185
0.00315397
0.0916034
0.00293199
0.091707
0.00265492
0.0918073
0.00237836
0.091902
0.00203398
0.091968
0.00174598
0.0920054
0.00135975
0.0919978
0.00114575
0.000756387
0.105569
0.00431243
-0.105597
0.105422
0.0043452
0.105202
0.00428364
0.104995
0.00418587
0.104827
0.00409182
0.104696
0.00399987
0.104599
0.0039043
0.104539
0.0037915
0.104513
0.00366259
0.104517
0.00350323
0.104545
0.0033257
0.104592
0.00310716
0.104645
0.00287868
0.104702
0.00259824
0.104746
0.00233416
0.104777
0.00200254
0.10478
0.00174351
0.104755
0.00138449
0.104697
0.0012035
0.000846255
0.112417
0.00433806
-0.112443
0.112505
0.00425744
0.112606
0.00418287
0.112711
0.0040802
0.112832
0.00397126
0.112969
0.00386293
0.113118
0.00375507
0.113277
0.00363225
0.113442
0.00349773
0.113611
0.00333467
0.113776
0.00316005
0.113937
0.00294686
0.114082
0.00273277
0.114212
0.00246868
0.114315
0.00223095
0.114392
0.00192624
0.114434
0.00170153
0.114442
0.00137632
0.114421
0.00122416
0.000898386
0.117504
0.00423557
-0.117401
0.117704
0.00405757
0.117947
0.00393932
0.118204
0.00382378
0.11847
0.00370451
0.11875
0.0035832
0.11904
0.00346523
0.119336
0.00333655
0.119631
0.00320243
0.119922
0.00304373
0.120202
0.00287995
0.120467
0.00268138
0.120711
0.00248889
0.12093
0.00225002
0.121118
0.00204317
0.121271
0.00177261
0.121391
0.00158229
0.121472
0.00129547
0.121527
0.00116917
0.000879922
0.121763
0.00399394
-0.121522
0.122038
0.00378242
0.122348
0.00362936
0.122675
0.00349655
0.123011
0.0033688
0.123355
0.00323912
0.123707
0.00311399
0.124062
0.00298128
0.124416
0.00284848
0.124764
0.00269571
0.1251
0.00254325
0.125421
0.00236071
0.125721
0.00218911
0.125995
0.00197624
0.12624
0.0017977
0.126452
0.00156115
0.126633
0.00140074
0.126777
0.00115185
0.126899
0.00104741
0.000795108
0.125874
0.0036901
-0.12557
0.126186
0.00347102
0.126519
0.00329598
0.126868
0.00314713
0.127225
0.00301177
0.127587
0.00287734
0.127953
0.00274847
0.12832
0.00261403
0.128685
0.00248315
0.129044
0.00233661
0.129393
0.00219441
0.129727
0.00202696
0.130043
0.0018734
0.130335
0.00168413
0.130603
0.00152929
0.130841
0.00132313
0.131055
0.00118723
0.131234
0.000972317
0.131396
0.00088534
0.000666514
0.130178
0.00336885
-0.129857
0.1305
0.00314899
0.130833
0.00296337
0.131176
0.0028042
0.131525
0.00266319
0.131876
0.0025263
0.132228
0.0023963
0.13258
0.00226228
0.132929
0.00213408
0.133271
0.00199387
0.133605
0.00186081
0.133925
0.00170696
0.13423
0.00156862
0.134514
0.00139983
0.134779
0.00126439
0.135018
0.00108419
0.135237
0.000967966
0.135427
0.00078194
0.135604
0.000708686
0.000518978
0.134752
0.0030425
-0.134425
0.135071
0.00282919
0.135392
0.00264313
0.135715
0.00248039
0.136042
0.00233683
0.136369
0.00219964
0.136694
0.00207066
0.137017
0.00193909
0.137337
0.00181466
0.13765
0.00168108
0.137954
0.00155647
0.138246
0.00141492
0.138525
0.00128964
0.138786
0.00113855
0.139031
0.00101913
0.139255
0.000860876
0.139462
0.000760455
0.139646
0.000598723
0.139818
0.000536353
0.000371712
0.139525
0.00271846
-0.139201
0.139835
0.00251841
0.140139
0.002339
0.140441
0.00217842
0.140742
0.00203597
0.141041
0.00190096
0.141336
0.00177515
0.141628
0.00164802
0.141913
0.00152876
0.142192
0.0014025
0.142462
0.00128622
0.142721
0.00115618
0.142968
0.00104255
0.1432
0.000907054
0.143417
0.000801289
0.143617
0.000661801
0.143803
0.000574475
0.143968
0.000433362
0.144124
0.000379888
0.000236918
0.144364
0.00240294
-0.144048
0.144664
0.00221881
0.144952
0.00205013
0.145235
0.00189626
0.145512
0.00175861
0.145784
0.00162857
0.146051
0.00150817
0.146312
0.00138747
0.146566
0.00127492
0.146811
0.001157
0.147048
0.00104941
0.147274
0.00093063
0.147488
0.000827924
0.147689
0.000706693
0.147877
0.000612998
0.148049
0.000490129
0.148209
0.000414013
0.148351
0.000291013
0.148486
0.000244923
0.000121151
0.149117
0.0020959
-0.14881
0.149407
0.00192862
0.149684
0.00177329
0.14995
0.00162975
0.150209
0.00150039
0.150459
0.0013782
0.150702
0.00126551
0.150936
0.00115322
0.151162
0.00104902
0.151378
0.00094068
0.151585
0.000842521
0.15178
0.000735247
0.151965
0.000643251
0.152136
0.000535647
0.152296
0.000453131
0.152441
0.00034558
0.152575
0.000279472
0.152693
0.000172911
0.152805
0.000133315
2.70193e-05
0.15364
0.00179338
-0.153337
0.153924
0.00164434
0.154193
0.00150465
0.154448
0.00137445
0.154692
0.00125647
0.154925
0.0011449
0.155149
0.00104224
0.155361
0.000940356
0.155564
0.000846187
0.155756
0.000748818
0.155938
0.000661063
0.156107
0.000565919
0.156265
0.000484836
0.15641
0.000390764
0.156544
0.00031904
0.156664
0.000226168
0.156774
0.000169374
0.156868
7.8318e-05
0.156957
4.4622e-05
-4.52246e-05
0.157826
0.00149371
-0.157526
0.158105
0.00136472
0.158367
0.00124274
0.158613
0.00112828
0.158846
0.00102421
0.159065
0.000925678
0.159272
0.000835153
0.159467
0.000745551
0.15965
0.000662986
0.159821
0.000577954
0.15998
0.000501638
0.160127
0.000419387
0.160262
0.00034964
0.160383
0.000269288
0.160494
0.000208266
0.16059
0.00012981
0.160678
8.19774e-05
0.16075
5.88566e-06
0.160817
-2.22654e-05
-9.63512e-05
0.16161
0.00120217
-0.161319
0.161881
0.00109439
0.162132
0.00099147
0.162366
0.00089433
0.162584
0.000805863
0.162788
0.000722074
0.162978
0.000645221
0.163154
0.000569266
0.163318
0.000499457
0.163468
0.000427759
0.163606
0.000363631
0.163731
0.000294842
0.163843
0.000236744
0.163942
0.000170206
0.164031
0.000119822
0.164105
5.55324e-05
0.164171
1.6379e-05
0.164222
-4.52683e-05
0.164268
-6.81457e-05
-0.000127211
0.164946
0.000930376
-0.164674
0.165197
0.00084353
0.165429
0.000759842
0.165643
0.000680478
0.16584
0.000608226
0.166022
0.00053985
0.16619
0.000477283
0.166344
0.000415502
0.166485
0.000358863
0.166612
0.0003008
0.166726
0.000249044
0.166827
0.000193714
0.166917
0.000147172
0.166993
9.41654e-05
0.167059
5.40588e-05
0.167111
3.37405e-06
0.167155
-2.75939e-05
0.167185
-7.55654e-05
0.167211
-9.35122e-05
-0.000138688
0.167761
0.000689277
-0.16752
0.167983
0.000621871
0.168186
0.000556525
0.168372
0.000494414
0.168542
0.000438021
0.168697
0.000384771
0.168838
0.000336207
0.168965
0.000288289
0.16908
0.00024448
0.169181
0.000199634
0.16927
0.000159798
0.169347
0.000117353
0.169412
8.17675e-05
0.169465
4.14718e-05
0.169508
1.10067e-05
0.169538
-2.71944e-05
0.169561
-5.05135e-05
0.169572
-8.61383e-05
0.169578
-9.95803e-05
-0.000132463
0.169973
0.000481932
-0.169765
0.170162
0.000432201
0.170335
0.000383965
0.170491
0.000338219
0.170632
0.000296923
0.170759
0.00025805
0.170872
0.000222732
0.170973
0.000187905
0.171061
0.000156166
0.171137
0.000123714
0.171202
9.50067e-05
0.171255
6.44829e-05
0.171297
3.90073e-05
0.171329
1.02562e-05
0.171351
-1.14518e-05
0.171362
-3.84087e-05
0.171367
-5.48954e-05
0.17136
-7.97037e-05
0.17135
-8.91481e-05
-0.000111583
0.171556
0.000303918
-0.171377
0.171717
0.000270525
0.171863
0.000238397
0.171993
0.000208303
0.172108
0.000181379
0.17221
0.000156103
0.1723
0.000133212
0.172377
0.000110627
0.172443
9.01183e-05
0.172498
6.91542e-05
0.172542
5.07e-05
0.172575
3.11161e-05
0.172599
1.4817e-05
0.172613
-3.56534e-06
0.172619
-1.73398e-05
0.172615
-3.43934e-05
0.172605
-4.4821e-05
0.172586
-6.03122e-05
0.172563
-6.6249e-05
-8.00123e-05
0.172559
0.00014813
-0.172404
0.1727
0.000129768
0.172825
0.000113268
0.172935
9.83565e-05
0.173031
8.52209e-05
0.173115
7.28737e-05
0.173186
6.16931e-05
0.173246
5.05919e-05
0.173296
4.05598e-05
0.173335
3.02759e-05
0.173364
2.13001e-05
0.173383
1.1748e-05
0.173394
3.91557e-06
0.173396
-5.09212e-06
0.17339
-1.16613e-05
0.173376
-1.99463e-05
0.173356
-2.48923e-05
0.173328
-3.23787e-05
0.173297
-3.51161e-05
-4.16483e-05
0.173047
-0.172899
0.173177
0.17329
0.173388
0.173473
0.173546
0.173608
0.173659
0.173699
0.173729
0.173751
0.173762
0.173766
0.173761
0.17375
0.17373
0.173705
0.173672
0.173637
0.0917526
0.0164154
-0.0904452
0.0931458
0.0262192
0.0946514
0.0359383
0.0962186
0.0454733
0.0979018
0.0545473
0.0995498
0.0632144
0.100933
0.071142
0.102109
0.0778142
0.0997006
0.0847337
0.083313
0.0941047
0.0152182
-0.0929074
0.0954298
0.0248941
0.0969296
0.0344385
0.0985692
0.0438338
0.100305
0.052812
0.102319
0.0612004
0.103939
0.0695219
0.106309
0.0754439
0.107035
0.0840075
0.084751
0.0967367
0.0141298
-0.0956483
0.0980052
0.0236255
0.0994492
0.0329946
0.101154
0.0421292
0.10289
0.051076
0.105117
0.0589729
0.107075
0.0675639
0.109526
0.072993
0.111934
0.0816002
0.0842419
0.0995598
0.013129
-0.0985589
0.100806
0.0223789
0.102218
0.031583
0.103968
0.0403791
0.105771
0.0492734
0.10799
0.0567537
0.110277
0.065277
0.112526
0.0707437
0.115505
0.0786213
0.0823455
0.102511
0.0121885
-0.10157
0.103752
0.021138
0.105191
0.0301432
0.106964
0.0386068
0.108906
0.0473308
0.11106
0.0546002
0.113572
0.0627651
0.115859
0.0684566
0.118899
0.0755815
0.0797228
0.105533
0.0112814
-0.104626
0.106771
0.0198996
0.108285
0.0286295
0.110089
0.0368025
0.112197
0.0452226
0.114403
0.0523942
0.117067
0.0601008
0.1196
0.0659242
0.12262
0.072561
0.0767728
0.108559
0.0103878
-0.107666
0.109805
0.0186537
0.11141
0.0270245
0.113293
0.0349194
0.115564
0.0429518
0.117955
0.0500031
0.120762
0.0572942
0.123583
0.0631028
0.126696
0.0694478
0.073612
0.111521
0.00949854
-0.110632
0.112794
0.0173803
0.114492
0.0253264
0.116505
0.0329069
0.118937
0.0405193
0.121574
0.0473662
0.124564
0.0543046
0.127675
0.0599916
0.131021
0.0661015
0.0702082
0.114358
0.00861084
-0.11347
0.115677
0.0160608
0.117468
0.0235356
0.119638
0.0307376
0.122243
0.0379144
0.125138
0.0444707
0.128374
0.0510687
0.131798
0.056568
0.135478
0.0624214
0.0664853
0.117031
0.00772442
-0.116145
0.118405
0.0146872
0.120288
0.0216523
0.122618
0.0284082
0.125409
0.0351225
0.128563
0.0413168
0.132095
0.0475376
0.135859
0.0528033
0.139931
0.05835
0.0623675
0.119529
0.00684108
-0.118646
0.120953
0.0132631
0.122925
0.0196803
0.125403
0.0259304
0.128386
0.0321393
0.131791
0.0379117
0.135633
0.0436964
0.139753
0.0486832
0.14424
0.0538625
0.0577978
0.121868
0.00596628
-0.120993
0.12333
0.0118007
0.12538
0.0176302
0.127987
0.0233238
0.131149
0.0289771
0.134786
0.0342744
0.138922
0.0395607
0.143391
0.0442137
0.148291
0.0489632
0.052751
0.124074
0.00510985
-0.123218
0.125558
0.0103163
0.12767
0.0155185
0.130383
0.0206114
0.133699
0.0256607
0.137541
0.0304324
0.141938
0.0351641
0.146732
0.039419
0.152013
0.0436821
0.0472384
0.126155
0.00428254
-0.125328
0.127644
0.00882714
0.129799
0.0133636
0.132596
0.0178148
0.136039
0.0222173
0.140057
0.026414
0.144677
0.0305446
0.149762
0.0343339
0.15538
0.0380645
0.0412992
0.128055
0.00349845
-0.127271
0.129539
0.0073434
0.131724
0.0111785
0.134589
0.0149496
0.138137
0.0186695
0.142307
0.0222437
0.147115
0.0257363
0.152453
0.0289959
0.158361
0.0321571
0.0349855
0.129672
0.00275389
-0.128927
0.131149
0.00586641
0.133358
0.00896913
0.136282
0.0120261
0.139917
0.0150342
0.144217
0.0179436
0.149184
0.0207694
0.154737
0.0234432
0.160889
0.0260054
0.0283543
0.130928
0.00203616
-0.13021
0.132403
0.00439147
0.134634
0.006738
0.137606
0.00905393
0.141312
0.0113282
0.145717
0.0135388
0.15081
0.015676
0.156535
0.0177189
0.162881
0.0196593
0.0214698
0.131837
0.0013374
-0.131139
0.133311
0.00291794
0.135557
0.00449204
0.138563
0.00604755
0.142319
0.00757265
0.146798
0.00905986
0.151981
0.0104931
0.157827
0.0118722
0.164312
0.0131748
0.0144042
0.132463
0.000660765
-0.131786
0.133928
0.00145284
0.136177
0.00224348
0.139199
0.00302514
0.142981
0.00379063
0.147502
0.00453836
0.152738
0.00525763
0.158658
0.00595206
0.165227
0.00660618
0.00722718
0.132805
-0.132144
0.134258
0.136502
0.139527
0.143317
0.147856
0.153113
0.159065
0.165671
0.0432827
0.0543166
-0.0483694
-0.04923
0.037294
0.0532951
-0.0473064
0.0316432
0.0527099
-0.0470592
0.0262506
0.0526593
-0.0472666
0.0210156
0.0530611
-0.0478261
0.0158828
0.0539157
-0.048783
0.0108446
0.055126
-0.0500878
0.00604064
0.0555529
-0.050749
0.00200758
0.0507029
-0.0466698
0.0293496
-0.027342
0.0409623
0.0601905
-0.0468362
0.0351892
0.0590682
0.0296511
0.0582481
0.0243843
0.057926
0.019322
0.0581234
0.0143957
0.058842
0.00960588
0.0599159
0.00513657
0.0600222
0.00156278
0.0542767
0.0309124
0.0378093
0.0657053
-0.0433241
0.0323432
0.0645343
0.0270429
0.0635484
0.0219851
0.0629838
0.017152
0.0629565
0.0124939
0.0635001
0.00803205
0.0643777
0.00400298
0.0640513
0.00101089
0.0572688
0.0319233
0.033626
0.070823
-0.0387436
0.0285918
0.0695685
0.0236795
0.0684606
0.0189658
0.0676976
0.0144664
0.0674559
0.0101626
0.0678039
0.00611473
0.0684256
0.00263679
0.0675292
0.000344899
0.0595607
0.0322682
0.028498
0.0754818
-0.0331568
0.0239576
0.0741088
0.0195398
0.0728785
0.0152924
0.0719449
0.0112393
0.071509
0.00739187
0.0716513
0.00385534
0.0719621
0.0010149
0.0703697
-0.000369763
0.0609453
0.0318984
0.0224453
0.0795725
-0.0265359
0.0184929
0.0780612
0.0146656
0.0767058
0.0109873
0.0756232
0.00748296
0.0750134
0.00419686
0.0749374
0.00130426
0.0748547
-0.000742504
0.0724164
-0.00110631
0.0613091
0.0307921
0.0155774
0.0829794
-0.0189843
0.0122969
0.0813417
0.00913678
0.0798659
0.00610928
0.0786507
0.00324294
0.0778797
0.000612924
0.0775675
-0.0015108
0.0769784
-0.0025409
0.0734465
-0.00186063
0.0606289
0.0289315
0.00798985
0.0856049
-0.0106154
0.00545019
0.0838813
0.00303861
0.0822775
0.000741173
0.0809481
-0.00142528
0.0800462
-0.00330725
0.0794494
-0.00453973
0.0782109
-0.0044763
0.0733831
-0.00258834
0.0587409
0.0263431
-0.000237541
0.0874863
-0.00164382
-0.00193114
0.0855749
-0.00354605
0.0838924
-0.00508248
0.0824845
-0.00646713
0.0814308
-0.00750079
0.0804831
-0.00771551
0.0784256
-0.00640014
0.0720677
-0.00322508
0.0555658
0.023118
-0.00882647
0.00796591
-0.00968694
-0.0104887
-0.011214
-0.0117652
-0.011851
-0.0108951
-0.00818133
-0.00369552
0.0366958
0.00347695
-0.0401728
0.0330857
0.00361013
0.0293211
0.00376457
0.0253806
0.00394057
0.0212347
0.00414592
0.0168461
0.00438855
0.0121852
0.00466093
0.0073221
0.00486308
0.00273806
0.00458404
0.00273806
0.0372167
0.00707807
-0.0408179
0.0334975
0.00732941
0.0296386
0.0076234
0.0256185
0.0079607
0.0214072
0.0083572
0.0169664
0.00882934
0.0122634
0.00936399
0.00736509
0.00976137
0.00276037
0.00918875
0.00549843
0.0381965
0.0109147
-0.0420332
0.0342701
0.0112559
0.0302321
0.0116614
0.0260603
0.0121325
0.0217238
0.0126937
0.0171829
0.0133703
0.0124026
0.0141443
0.00744567
0.0147183
0.00279123
0.0138432
0.00828967
0.039516
0.015071
-0.0436723
0.0353073
0.0154646
0.0310245
0.0159442
0.0266451
0.0165118
0.0221377
0.0172011
0.0174607
0.0180473
0.0125762
0.0190287
0.00754149
0.019753
0.0028277
0.018557
0.0111174
0.0410125
0.0195968
-0.0455382
0.0364752
0.0200019
0.0319066
0.0205128
0.0272858
0.0211327
0.0225806
0.0219063
0.0177475
0.0228804
0.0127455
0.0240307
0.00762723
0.0248713
0.0028568
0.0233274
0.0139742
0.042503
0.0244989
-0.0474051
0.0376251
0.0248798
0.0327563
0.0253815
0.0278818
0.0260071
0.022971
0.0268171
0.0179788
0.0278727
0.012862
0.0291475
0.0076704
0.0300629
0.00286308
0.0281347
0.0168372
0.0437692
0.0297622
-0.0490325
0.0385603
0.0300886
0.033411
0.0305309
0.0283091
0.0311091
0.023216
0.0319102
0.0180844
0.0330043
0.0128734
0.0343584
0.00763589
0.0353004
0.00283003
0.0329406
0.0196673
0.044719
0.0353408
-0.0502976
0.039187
0.0356206
0.0337795
0.0359384
0.0284799
0.0364086
0.0232359
0.0371541
0.0179982
0.0382421
0.0127294
0.0396271
0.00748987
0.04054
0.00274212
0.0376883
0.0224094
0.0449122
0.0413553
-0.0509267
0.0391366
0.0413962
0.0336193
0.0414557
0.0282287
0.0417993
0.0229088
0.0424739
0.0176308
0.0435201
0.0123676
0.0448904
0.00719369
0.0457139
0.00258532
0.0422967
0.0249947
0.0445489
-0.051563
0.0386387
0.0330352
0.0275679
0.0222158
0.016953
0.0117555
0.00672041
0.00234732
0.0440248
-0.000131699
0.0441553
-0.000130474
0.0442831
-0.000127871
0.0444034
-0.000120242
0.0445115
-0.000108121
0.0446032
-9.17363e-05
0.0446739
-7.06542e-05
0.0447179
-4.3999e-05
0.0447275
-9.63074e-06
0.0447019
2.56314e-05
0.0446348
6.70463e-05
0.0445174
0.000117394
0.04434
0.00017747
0.0440913
0.000248648
0.0437585
0.000332794
0.0433263
0.00043222
0.0427765
0.000549843
0.0420872
0.000689287
0.0412332
0.000853932
0.00106044
0.0448501
-0.000263876
0.0449794
-0.000259781
0.0451041
-0.000252555
0.0452202
-0.000236382
0.0453238
-0.000211764
0.0454107
-0.000178607
0.045476
-0.000135952
0.0455141
-8.20784e-05
0.0455171
-1.26437e-05
0.0454855
5.72112e-05
0.0454111
0.000141456
0.0452851
0.000243386
0.0450978
0.000364767
0.044838
0.000508436
0.0444927
0.000678156
0.0440464
0.000878542
0.0434808
0.00111544
0.0427739
0.00139612
0.041901
0.00172683
0.00214363
0.0464725
-0.000385151
0.0465912
-0.000378458
0.0467056
-0.000366938
0.0468111
-0.000341952
0.0469036
-0.000304226
0.0469786
-0.000253575
0.0470311
-0.00018855
0.0470553
-0.000106208
0.0470404
2.21752e-06
0.0469943
0.00010328
0.0469028
0.00023298
0.0467574
0.000388834
0.0465483
0.000573816
0.0462643
0.000792443
0.0458921
0.00105042
0.0454159
0.00135465
0.0448175
0.00171387
0.0440744
0.00213922
0.043163
0.0026382
0.00327347
0.0488308
-0.00048355
0.0489266
-0.000474261
0.0490181
-0.000458486
0.0491005
-0.000424356
0.0491688
-0.000372511
0.049218
-0.000302769
0.0492426
-0.000213185
0.0492362
-9.975e-05
0.0492015
3.6871e-05
0.0491247
0.000180069
0.0490002
0.000357484
0.0488191
0.000569928
0.0485714
0.000821504
0.0482456
0.00111833
0.047828
0.00146801
0.0473026
0.00187998
0.046651
0.0023655
0.0458495
0.00294075
0.0448775
0.00361019
0.00447867
0.0518421
-0.000541442
0.0518971
-0.000529265
0.0519471
-0.000508524
0.0519871
-0.000464386
0.052012
-0.000397327
0.0520162
-0.000307017
0.0519942
-0.000191214
0.0519362
-4.16966e-05
0.0518549
0.000118183
0.0517275
0.00030743
0.0515488
0.000536204
0.0513102
0.000808493
0.0510017
0.00113002
0.0506112
0.00150887
0.050125
0.00195414
0.0495264
0.00247862
0.0487973
0.00309464
0.0479109
0.00382711
0.046853
0.00466807
0.00579347
0.0554113
-0.000534662
0.0554006
-0.000518557
0.0553826
-0.00049056
0.0553523
-0.000434078
0.0553045
-0.000349544
0.055234
-0.000236522
0.0551322
-8.94356e-05
0.0550074
8.31643e-05
0.0548476
0.000277993
0.0546392
0.000515844
0.0543764
0.000799007
0.0540504
0.00113441
0.0536515
0.00152892
0.0531667
0.00199367
0.0525829
0.00253796
0.051881
0.00318054
0.0510451
0.00393054
0.0500419
0.00483034
0.0488686
0.00584132
0.00725702
0.0594421
-0.000430697
0.0593318
-0.000408237
0.0592094
-0.000368126
0.0590724
-0.000297129
0.0589163
-0.000193411
0.0587277
-4.79361e-05
0.0585216
0.000116673
0.0582893
0.000315467
0.0580111
0.000556203
0.0576835
0.000843434
0.0572999
0.00118265
0.0568503
0.00158403
0.0563256
0.00205361
0.055711
0.00260824
0.0549959
0.00325308
0.0541563
0.00402008
0.0531831
0.00490379
0.0520282
0.00598525
0.0507061
0.00716338
0.00893064
0.0638433
-0.000184246
0.0635908
-0.00015574
0.0633204
-9.76974e-05
0.0630191
4.20404e-06
0.0627071
0.000118562
0.0623815
0.0002776
0.0620241
0.000474155
0.0616273
0.000712232
0.0611878
0.000995685
0.060698
0.00133328
0.0601514
0.00172918
0.0595367
0.0021988
0.0588468
0.00274352
0.0580622
0.00339277
0.0571779
0.0041374
0.0561572
0.00504077
0.0550091
0.00605193
0.0536622
0.00733217
0.052168
0.00865758
0.010801
0.0685304
0.000260111
0.068073
0.000301579
0.0676001
0.000375246
0.0671199
0.000484388
0.0666098
0.000628654
0.0660729
0.000814549
0.0655045
0.00104252
0.064899
0.00131772
0.064252
0.00164271
0.0635545
0.00203076
0.0628016
0.00248214
0.0619787
0.00302165
0.0610841
0.00363818
0.0600917
0.00438508
0.0590108
0.00521833
0.0577769
0.00627467
0.0564253
0.00740355
0.0548031
0.00895434
0.0530957
0.010365
0.01297
0.0735008
0.0010175
0.0727764
0.001026
0.0720504
0.00110117
0.0713057
0.00122915
0.070535
0.00139935
0.0697374
0.00161216
0.0689113
0.00186859
0.0680509
0.00217814
0.0671521
0.00254147
0.0662051
0.00297777
0.0652073
0.00347997
0.0641409
0.00408803
0.0630103
0.00476877
0.0617808
0.00561459
0.0604854
0.00651378
0.0590392
0.00772079
0.0575867
0.00885609
0.0558234
0.0107176
0.0542018
0.0119867
0.0156088
0.0727244
0.000951384
0.0727439
0.00100648
0.0727367
0.00110844
0.0727152
0.00125064
0.072686
0.00142847
0.0726526
0.00164555
0.07262
0.00190127
0.0725898
0.00220826
0.0725677
0.00256362
0.0725534
0.00299208
0.0725585
0.0034749
0.0725802
0.00406627
0.0726461
0.00470283
0.0727403
0.0055204
0.0729302
0.00632388
0.0731635
0.00748753
0.0736146
0.00840502
0.0741751
0.0101571
0.0753735
0.0107883
0.013497
0.0774852
0.0778863
0.00091533
0.0778924
0.00100035
0.077881
0.00111991
0.07786
0.00127162
0.0778322
0.00145625
0.0778021
0.00167565
0.0777765
0.0019269
0.0777581
0.00222659
0.0777525
0.00256923
0.0777611
0.0029835
0.0777947
0.00344135
0.0778561
0.00400485