/*--------------------------------*- C++ -*----------------------------------*\
| =========                 |                                                 |
| \\      /  F ield         | OpenFOAM: The Open Source CFD Toolbox           |
|  \\    /   O peration     | Version:  4.1                                   |
|   \\  /    A nd           | Web:      www.OpenFOAM.org                      |
|    \\/     M anipulation  |                                                 |
\*---------------------------------------------------------------------------*/
FoamFile
{
    version     2.0;
    format      ascii;
    class       volScalarField;
    location    "8.3";
    object      p;
}
// * * * * * * * * * * * * * * * * * * * * * * * * * * * * * * * * * * * * * //

dimensions      [0 2 -2 0 0 0 0];

internalField   nonuniform List<scalar> 
2000
(
-0.368095
-0.356986
-0.346071
-0.336122
-0.327799
-0.320596
-0.313201
-0.305989
-0.295832
-0.289203
-0.390618
-0.375579
-0.362011
-0.349603
-0.338185
-0.326888
-0.314923
-0.302128
-0.287706
-0.274773
-0.418714
-0.398868
-0.382175
-0.366441
-0.350289
-0.333165
-0.315064
-0.296495
-0.277404
-0.259142
-0.452583
-0.427021
-0.406546
-0.385803
-0.362639
-0.337865
-0.312771
-0.288354
-0.26466
-0.243634
-0.491831
-0.459524
-0.434155
-0.405735
-0.373058
-0.339285
-0.306819
-0.276644
-0.249054
-0.224768
-0.534475
-0.494952
-0.462404
-0.423087
-0.378931
-0.335574
-0.295838
-0.260369
-0.229005
-0.20166
-0.576978
-0.53068
-0.48722
-0.434104
-0.377627
-0.324951
-0.278506
-0.238209
-0.203374
-0.172928
-0.61428
-0.562252
-0.504078
-0.43536
-0.366866
-0.305793
-0.253481
-0.209002
-0.170942
-0.137598
-0.64103
-0.583762
-0.508706
-0.424155
-0.344808
-0.276631
-0.219511
-0.171627
-0.130878
-0.0952447
-0.652587
-0.589589
-0.497222
-0.398392
-0.310038
-0.236266
-0.175494
-0.125114
-0.0824645
-0.0455516
-0.268546
-0.275222
-0.278626
-0.281845
-0.285306
-0.288725
-0.29186
-0.294544
-0.296771
-0.298783
-0.272258
-0.278366
-0.28155
-0.284704
-0.28815
-0.291575
-0.294717
-0.297344
-0.299379
-0.301397
-0.279046
-0.284024
-0.286773
-0.289694
-0.292983
-0.296288
-0.299316
-0.301765
-0.303346
-0.304933
-0.287768
-0.291238
-0.293247
-0.295635
-0.298479
-0.301396
-0.304056
-0.306167
-0.307108
-0.306709
-0.297286
-0.299067
-0.299977
-0.301425
-0.303439
-0.305642
-0.30764
-0.309114
-0.309286
-0.306947
-0.306821
-0.306888
-0.30632
-0.30639
-0.307171
-0.308377
-0.309524
-0.310214
-0.31003
-0.304176
-0.316184
-0.314502
-0.31222
-0.31049
-0.309694
-0.309691
-0.309895
-0.309602
-0.31028
-0.299908
-0.325854
-0.32236
-0.318115
-0.31435
-0.311792
-0.310429
-0.309736
-0.308191
-0.309885
-0.29695
-0.33686
-0.331328
-0.324977
-0.319134
-0.314794
-0.312025
-0.31009
-0.307466
-0.307874
-0.296512
-0.350513
-0.342517
-0.333966
-0.326094
-0.319951
-0.315402
-0.311289
-0.307344
-0.303395
-0.296634
-0.300704
-0.301704
-0.301948
-0.301252
-0.299402
-0.296174
-0.291328
-0.284599
-0.27571
-0.264423
-0.250571
-0.234136
-0.214879
-0.192646
-0.167413
-0.139386
-0.108741
-0.0748105
-0.0371802
-0.00451878
-0.30434
-0.305533
-0.305966
-0.305528
-0.303969
-0.301059
-0.296549
-0.290162
-0.281594
-0.270664
-0.257206
-0.241086
-0.22212
-0.200146
-0.175082
-0.146998
-0.116062
-0.0820184
-0.044278
-0.00781976
-0.309936
-0.311303
-0.312047
-0.312077
-0.311037
-0.308688
-0.304783
-0.299035
-0.290958
-0.280454
-0.267678
-0.252066
-0.233491
-0.211803
-0.186879
-0.15864
-0.127144
-0.0925097
-0.0541232
-0.0120784
-0.31601
-0.316536
-0.317777
-0.318359
-0.317948
-0.31628
-0.313159
-0.30851
-0.29988
-0.290772
-0.278381
-0.263221
-0.244988
-0.223471
-0.198517
-0.169993
-0.137819
-0.101891
-0.0620285
-0.017981
-0.317689
-0.320647
-0.321758
-0.322633
-0.322838
-0.321827
-0.319281
-0.314744
-0.308228
-0.299151
-0.287252
-0.272392
-0.254282
-0.232702
-0.207471
-0.178429
-0.145481
-0.108392
-0.0674218
-0.0213898
-0.317672
-0.322698
-0.323681
-0.324498
-0.325098
-0.324434
-0.322776
-0.319099
-0.312723
-0.303984
-0.292459
-0.27779
-0.259704
-0.237972
-0.21241
-0.182839
-0.149242
-0.111304
-0.0696735
-0.0228768
-0.315794
-0.323019
-0.323787
-0.32411
-0.325072
-0.325429
-0.323431
-0.319599
-0.313574
-0.305017
-0.293543
-0.278845
-0.260637
-0.238699
-0.212849
-0.182946
-0.149036
-0.110894
-0.0692343
-0.0231569
-0.312673
-0.321118
-0.321453
-0.321026
-0.321648
-0.321693
-0.319915
-0.316138
-0.310101
-0.301464
-0.289862
-0.275026
-0.256661
-0.234609
-0.208673
-0.178854
-0.145139
-0.107643
-0.0667766
-0.0226687
-0.309868
-0.316693
-0.315348
-0.314308
-0.314518
-0.314006
-0.311906
-0.307971
-0.301811
-0.293056
-0.281346
-0.266477
-0.248143
-0.226295
-0.200689
-0.171542
-0.13868
-0.102667
-0.0633733
-0.0219138
-0.308019
-0.309308
-0.306821
-0.305043
-0.303635
-0.301734
-0.29886
-0.294492
-0.288043
-0.279158
-0.267479
-0.252855
-0.234937
-0.21378
-0.189076
-0.161253
-0.12998
-0.0962166
-0.0593707
-0.0211317
-0.288644
-0.294131
-0.294351
-0.292295
-0.289753
-0.287082
-0.283669
-0.27875
-0.271728
-0.262344
-0.250328
-0.235611
-0.21791
-0.19735
-0.173665
-0.147369
-0.118115
-0.0870165
-0.0533074
-0.0190643
-0.270036
-0.279646
-0.280453
-0.276685
-0.272406
-0.268643
-0.264569
-0.259139
-0.251675
-0.241982
-0.229884
-0.215402
-0.198302
-0.178759
-0.156518
-0.132141
-0.105257
-0.0770415
-0.0466714
-0.0164674
-0.24825
-0.261236
-0.262575
-0.257995
-0.252842
-0.248589
-0.244315
-0.238808
-0.231329
-0.221739
-0.209945
-0.196047
-0.179853
-0.161572
-0.140962
-0.118599
-0.0941133
-0.0686847
-0.0415063
-0.0148132
-0.225677
-0.240246
-0.242543
-0.238313
-0.233166
-0.228876
-0.22465
-0.219281
-0.212023
-0.202764
-0.191471
-0.178303
-0.163109
-0.146124
-0.127119
-0.106671
-0.0844183
-0.0614993
-0.0370992
-0.0132749
-0.202934
-0.218127
-0.221734
-0.218568
-0.213964
-0.209909
-0.205868
-0.200762
-0.193868
-0.18509
-0.174423
-0.162066
-0.147909
-0.132204
-0.114741
-0.0960838
-0.0758777
-0.0552002
-0.0332417
-0.0119179
-0.180505
-0.196058
-0.200997
-0.199149
-0.195369
-0.191747
-0.188018
-0.183279
-0.176861
-0.168673
-0.158721
-0.14723
-0.13412
-0.119664
-0.103663
-0.0866684
-0.068327
-0.0496582
-0.0298678
-0.0107418
-0.159149
-0.174778
-0.180821
-0.180284
-0.177466
-0.174431
-0.171132
-0.166848
-0.160984
-0.153456
-0.14427
-0.133668
-0.121595
-0.108339
-0.0937117
-0.0782517
-0.0616058
-0.0447445
-0.0268854
-0.00970587
-0.139212
-0.15459
-0.161462
-0.162147
-0.160345
-0.158003
-0.155223
-0.151458
-0.146192
-0.139358
-0.130961
-0.121251
-0.110188
-0.0980743
-0.0847306
-0.070685
-0.0555819
-0.0403534
-0.0242233
-0.00878607
-0.120693
-0.135611
-0.143101
-0.144894
-0.144107
-0.142512
-0.140308
-0.137097
-0.13245
-0.12632
-0.118711
-0.109877
-0.099787
-0.0887541
-0.0766047
-0.0638607
-0.0501621
-0.0364119
-0.0218356
-0.00796666
-0.103575
-0.117948
-0.125897
-0.128674
-0.128858
-0.128019
-0.126415
-0.123772
-0.119743
-0.11431
-0.107472
-0.0994839
-0.0903187
-0.0802994
-0.0692551
-0.0577047
-0.0452821
-0.0328698
-0.0196911
-0.00723527
-0.0879192
-0.101703
-0.109977
-0.113611
-0.114695
-0.114592
-0.113583
-0.111504
-0.108079
-0.103318
-0.0972178
-0.0900331
-0.0817363
-0.0726583
-0.062629
-0.0521668
-0.0408987
-0.029693
-0.0177685
-0.00658299
-0.0737875
-0.0869494
-0.0954341
-0.0998023
-0.101706
-0.102296
-0.101862
-0.100324
-0.0974736
-0.0933477
-0.0879412
-0.0815064
-0.0740132
-0.0657988
-0.0566927
-0.0472142
-0.0369833
-0.026859
-0.0160539
-0.00600385
-0.0612028
-0.073732
-0.0823377
-0.0873301
-0.0899663
-0.0911961
-0.0912998
-0.0902684
-0.0879524
-0.0844136
-0.0796457
-0.0738978
-0.0671362
-0.0597029
-0.0514259
-0.0428266
-0.033518
-0.0243534
-0.0145383
-0.00549385
-0.0501696
-0.0620859
-0.0707476
-0.0762648
-0.0795458
-0.0813518
-0.0819448
-0.0813746
-0.0795427
-0.0765342
-0.0723411
-0.0672097
-0.0611015
-0.0543621
-0.0468178
-0.0389923
-0.0304921
-0.0221673
-0.0132164
-0.0050504
-0.0406918
-0.0520414
-0.0607152
-0.0666666
-0.0705032
-0.0728146
-0.0738404
-0.0736779
-0.0722725
-0.0697301
-0.0660413
-0.0614496
-0.055911
-0.0497744
-0.0428637
-0.0357053
-0.0278998
-0.0202958
-0.0120848
-0.00467186
-0.0327743
-0.0436233
-0.0522825
-0.0585853
-0.0628872
-0.0656283
-0.0670239
-0.0672094
-0.0661673
-0.0640214
-0.060761
-0.0566267
-0.0515698
-0.0459413
-0.0395627
-0.0329634
-0.0257384
-0.0187362
-0.0111419
-0.00435725
-0.0264218
-0.0368541
-0.0454871
-0.0520652
-0.0567411
-0.0598309
-0.0615278
-0.0619968
-0.0612503
-0.0594267
-0.0565145
-0.0527514
-0.0480845
-0.0428661
-0.0369164
-0.0307664
-0.0240074
-0.0174877
-0.0103871
-0.004106
-0.0216336
-0.0317517
-0.0403632
-0.047148
-0.0521058
-0.0554587
-0.0573832
-0.0580667
-0.057544
-0.0559648
-0.0533165
-0.0498347
-0.0454628
-0.0405542
-0.0349278
-0.0291162
-0.0227077
-0.0165508
-0.00982101
-0.00391782
-0.0183683
-0.0282963
-0.0369116
-0.0438472
-0.0490002
-0.0525318
-0.0546093
-0.0554363
-0.0550638
-0.0536486
-0.0511781
-0.047885
-0.0437113
-0.0390097
-0.0336002
-0.0280138
-0.0218411
-0.0159247
-0.0094461
-0.00379025
-0.0166025
-0.0264647
-0.0351177
-0.0421536
-0.0474195
-0.0510489
-0.0532084
-0.0541094
-0.0538153
-0.0524829
-0.0501047
-0.0469051
-0.0428346
-0.0382331
-0.0329381
-0.0274575
-0.0214128
-0.0156033
-0.0092682
-0.0037132
-0.0156659
-0.065205
-0.10836
-0.145239
-0.176062
-0.201497
-0.22256
-0.240803
-0.256027
-0.279599
0.00927232
-0.0387916
-0.0808789
-0.117526
-0.14865
-0.175668
-0.197643
-0.219253
-0.234285
-0.257835
0.0316965
-0.0143466
-0.0546637
-0.0904654
-0.120927
-0.148779
-0.170769
-0.19376
-0.208559
-0.23048
0.0517525
0.0076717
-0.0310001
-0.0660158
-0.0957169
-0.123706
-0.14546
-0.16826
-0.18407
-0.205533
0.0696475
0.027284
-0.0100285
-0.044297
-0.0733742
-0.101037
-0.122836
-0.145269
-0.162387
-0.183052
0.085595
0.0447871
0.00866031
-0.0247698
-0.0533044
-0.0804115
-0.102389
-0.124359
-0.141858
-0.16137
0.09984
0.0604884
0.0254517
-0.00705634
-0.0350603
-0.0614838
-0.0834003
-0.104664
-0.12192
-0.140625
0.112599
0.0746103
0.0405904
0.0090236
-0.0184207
-0.0440931
-0.0656951
-0.0862691
-0.103257
-0.121408
0.124036
0.0873045
0.0542323
0.0235774
-0.00328167
-0.0282271
-0.0494468
-0.0694853
-0.086231
-0.103751
0.134275
0.0986842
0.0664917
0.0366904
0.0104113
-0.0138824
-0.0347284
-0.0542846
-0.0707135
-0.0874993
0.143406
0.10884
0.0774572
0.0484385
0.0227129
-0.000989915
-0.0214582
-0.0405119
-0.0565866
-0.0726543
0.151499
0.117847
0.0871997
0.0588926
0.0336872
0.010537
-0.00955584
-0.0281144
-0.0438686
-0.059289
0.158602
0.125761
0.0957765
0.0681134
0.043389
0.0207517
0.00100465
-0.0171048
-0.0325878
-0.0474297
0.164749
0.132627
0.103233
0.0761468
0.0518561
0.0296807
0.0102354
-0.00748094
-0.0227311
-0.0370633
0.169967
0.138477
0.109602
0.0830255
0.059116
0.0373455
0.0181583
0.000780009
-0.0142737
-0.0281751
0.174273
0.143334
0.114909
0.0887738
0.0651922
0.0437682
0.0247979
0.0076998
-0.00719911
-0.0207573
0.177676
0.147214
0.119175
0.0934117
0.0701055
0.0489685
0.0301727
0.0132927
-0.00149777
-0.0148041
0.180191
0.150133
0.12242
0.0969634
0.0738829
0.0529729
0.0343077
0.0175808
0.00284904
-0.0103011
0.181819
0.15209
0.124645
0.0994384
0.0765452
0.0558112
0.0372415
0.0206113
0.00589688
-0.0071905
0.182469
0.152984
0.125715
0.10069
0.0779427
0.0573399
0.038847
0.022285
0.00758208
-0.00548954
0.72772
0.730587
0.723303
0.706517
0.681218
0.646526
0.598356
0.52984
0.438722
0.372879
0.657022
0.65313
0.633996
0.607082
0.573315
0.529486
0.470096
0.387939
0.281016
0.202762
0.582336
0.56961
0.540729
0.505482
0.463733
0.410769
0.340483
0.245689
0.124456
0.0361789
0.497021
0.47771
0.443084
0.402171
0.353768
0.292536
0.212472
0.106894
-0.0268081
-0.121139
0.407352
0.382879
0.344342
0.299227
0.245372
0.177121
0.0887353
-0.0250454
-0.16872
-0.26218
0.318964
0.289781
0.248107
0.199612
0.141343
0.0674722
-0.027715
-0.14797
-0.292102
-0.384594
0.234338
0.200977
0.156985
0.106019
0.0445478
-0.0332387
-0.13273
-0.256215
-0.395706
-0.485611
0.154753
0.118077
0.0728443
0.0205101
-0.0427115
-0.122623
-0.223441
-0.346213
-0.47848
-0.563038
0.0810178
0.0423299
-0.00264492
-0.0552347
-0.119321
-0.199088
-0.298312
-0.416662
-0.538641
-0.616021
0.0125765
-0.0248493
-0.0687716
-0.120743
-0.183923
-0.261611
-0.356655
-0.466961
-0.575399
-0.645219
1.16649
1.18637
1.20896
1.23433
1.26241
1.29291
1.32493
1.35599
1.38281
1.41233
1.16071
1.1794
1.20107
1.22547
1.25234
1.28134
1.31153
1.34034
1.36443
1.39188
1.14883
1.16516
1.18501
1.2075
1.23199
1.25802
1.28456
1.30884
1.3277
1.35082
1.13025
1.14312
1.16034
1.18004
1.20103
1.22271
1.24388
1.26152
1.27267
1.28937
1.10421
1.11264
1.12652
1.14264
1.15913
1.17517
1.18938
1.19838
1.19949
1.2079
1.06992
1.07297
1.08285
1.09473
1.10586
1.11517
1.12103
1.11964
1.10853
1.10707
1.02682
1.02383
1.02932
1.03642
1.04136
1.04289
1.03915
1.02585
1.00061
0.98798
0.973186
0.963589
0.965009
0.967399
0.965729
0.958751
0.944495
0.918112
0.877213
0.852289
0.909288
0.893418
0.891532
0.88868
0.87954
0.863418
0.83808
0.797934
0.740495
0.702196
0.827104
0.812934
0.810652
0.802032
0.784625
0.758873
0.721994
0.667606
0.593205
0.540994
1.00169
1.00503
1.00902
1.01354
1.01823
1.02302
1.028
1.03328
1.03895
1.04506
1.05171
1.05891
1.06675
1.07532
1.08476
1.09517
1.10667
1.1194
1.13351
1.14912
1.00165
1.00499
1.00896
1.01338
1.01796
1.02264
1.02753
1.0327
1.03825
1.04423
1.05071
1.05773
1.06535
1.07369
1.08284
1.09291
1.10401
1.11626
1.12977
1.14463
1.00165
1.00493
1.00874
1.01297
1.01735
1.02184
1.02653
1.03149
1.03679
1.04251
1.04865
1.05528
1.06248
1.07032
1.07889
1.08826
1.09853
1.10978
1.12205
1.13534
1.00161
1.00478
1.00835
1.01228
1.01637
1.02057
1.02494
1.02956
1.03448
1.03978
1.04541
1.05144
1.05796
1.06502
1.07266
1.08094
1.08989
1.09955
1.10985
1.12065
1.00153
1.00451
1.00775
1.01128
1.01497
1.01876
1.0227
1.02685
1.03125
1.03591
1.0408
1.04601
1.05158
1.05754
1.06387
1.07059
1.07767
1.08504
1.09255
1.09978
1.0014
1.00411
1.0069
1.00991
1.01307
1.01633
1.0197
1.02322
1.02697
1.03074
1.03467
1.0388
1.04313
1.04762
1.05221
1.05684
1.06141
1.06571
1.06949
1.0719
1.00119
1.00352
1.00579
1.00815
1.01064
1.01323
1.01589
1.01872
1.02142
1.02412
1.02689
1.02968
1.03243
1.03503
1.0374
1.0393
1.04063
1.0409
1.03993
1.03619
1.00086
1.00266
1.00432
1.00595
1.00768
1.00952
1.01137
1.013
1.01457
1.01607
1.01745
1.01858
1.0194
1.01968
1.01933
1.0179
1.01528
1.01049
1.00356
0.991812
1.00042
1.00144
1.00234
1.00319
1.00408
1.00491
1.00562
1.00615
1.00648
1.00654
1.00624
1.00539
1.00388
1.00136
0.997749
0.99229
0.985144
0.974454
0.961223
0.939381
1.00009
1.00003
0.99996
0.999943
0.999862
0.999612
0.999139
0.998372
0.997245
0.995621
0.993402
0.990293
0.98618
0.980426
0.973027
0.962441
0.949291
0.929503
0.906488
0.868689
0.999485
0.998548
0.997654
0.996718
0.995599
0.994179
0.992401
0.990171
0.987406
0.983905
0.97954
0.97392
0.966892
0.957652
0.946129
0.930514
0.911119
0.883169
0.84754
0.789589
0.999076
0.997158
0.995343
0.993474
0.991312
0.988717
0.985649
0.982007
0.977698
0.972481
0.966216
0.958457
0.949063
0.937158
0.922692
0.903851
0.880887
0.850122
0.812964
0.764594
0.998695
0.995782
0.993035
0.990213
0.986978
0.983188
0.978829
0.973799
0.968
0.961162
0.953148
0.943489
0.932065
0.918017
0.90133
0.88042
0.855668
0.824468
0.788404
0.743707
0.998124
0.994455
0.99094
0.987124
0.98273
0.977685
0.97201
0.965596
0.958336
0.949941
0.940277
0.928876
0.915645
0.899774
0.88132
0.858894
0.833058
0.801545
0.766113
0.722838
0.997594
0.993243
0.989073
0.984264
0.978645
0.972291
0.96528
0.957498
0.948823
0.938948
0.927749
0.91477
0.899956
0.882547
0.862688
0.839104
0.812506
0.78073
0.745789
0.703892
0.99707
0.99209
0.987409
0.981666
0.974795
0.967086
0.958726
0.949604
0.939574
0.928312
0.915703
0.901311
0.885122
0.866427
0.845442
0.820981
0.793848
0.762025
0.727642
0.687185
0.996488
0.990994
0.986016
0.979429
0.971278
0.96216
0.952435
0.942005
0.93069
0.918136
0.90424
0.888587
0.871206
0.851437
0.829544
0.804438
0.776961
0.745282
0.711476
0.672346
0.995861
0.989992
0.984983
0.977655
0.968184
0.957587
0.946471
0.934769
0.922244
0.908501
0.893434
0.876661
0.858243
0.837581
0.814958
0.789392
0.761711
0.730286
0.69703
0.659099
0.995183
0.989101
0.984372
0.976421
0.965572
0.953408
0.940874
0.927945
0.914296
0.899466
0.883338
0.865573
0.846256
0.824853
0.801645
0.775761
0.747973
0.716859
0.684124
0.647294
0.994462
0.988353
0.984252
0.975786
0.963465
0.949626
0.935655
0.921562
0.906885
0.891073
0.873989
0.855349
0.835257
0.813244
0.789568
0.763472
0.735647
0.704875
0.672636
0.636819
0.993726
0.987866
0.984752
0.975789
0.961822
0.946188
0.930792
0.915631
0.900037
0.883346
0.865408
0.846003
0.825247
0.802737
0.778693
0.752466
0.724653
0.694239
0.662468
0.627581
0.99303
0.987934
0.986119
0.976442
0.960518
0.942981
0.926244
0.910157
0.893766
0.876294
0.857601
0.837538
0.816226
0.793318
0.768986
0.742691
0.714926
0.684872
0.653537
0.619495
0.992412
0.988923
0.988521
0.977594
0.959299
0.939842
0.921965
0.905145
0.888077
0.869918
0.850569
0.829958
0.808191
0.784971
0.760421
0.734104
0.706413
0.676709
0.645774
0.612494
0.991838
0.990768
0.991395
0.978484
0.957609
0.936527
0.917886
0.900557
0.882928
0.864188
0.844305
0.823265
0.801141
0.777685
0.752973
0.726672
0.699071
0.669698
0.639125
0.606519
0.991778
0.99268
0.992839
0.977559
0.954762
0.932936
0.914028
0.89635
0.878252
0.85907
0.838812
0.81747
0.795082
0.771453
0.746629
0.720368
0.692865
0.663797
0.633544
0.601526
0.990163
0.98962
0.988776
0.972571
0.950272
0.929354
0.910622
0.892552
0.874021
0.854567
0.834115
0.812599
0.790025
0.766277
0.74138
0.715175
0.687772
0.658974
0.628995
0.597474
0.989634
0.977955
0.970625
0.959129
0.943527
0.926095
0.907858
0.889244
0.870315
0.850756
0.830267
0.808678
0.785989
0.762164
0.737226
0.711081
0.683773
0.655199
0.625451
0.594325
0.996243
0.968294
0.945991
0.939935
0.9351
0.922987
0.905578
0.886594
0.867423
0.847837
0.827347
0.805724
0.78297
0.759107
0.73415
0.708059
0.680831
0.652435
0.622874
0.592051
0.999417
0.975346
0.950843
0.940089
0.932353
0.9201
0.903325
0.884782
0.865696
0.846019
0.825422
0.803736
0.780945
0.75707
0.732109
0.706057
0.678888
0.65062
0.621207
0.590617
0.988972
0.987395
0.983755
0.964603
0.940846
0.919938
0.90189
0.884084
0.865301
0.845437
0.824603
0.802803
0.779972
0.756083
0.731113
0.705075
0.677931
0.649728
0.620401
0.58998
0.720401
0.64603
0.573797
0.495182
0.411501
0.328915
0.250045
0.175182
0.104911
0.0408071
0.710988
0.634215
0.558517
0.484672
0.407272
0.329892
0.256248
0.186618
0.121765
0.0629519
0.694906
0.621845
0.545841
0.475935
0.405219
0.33325
0.26409
0.198997
0.138532
0.0827639
0.677772
0.610274
0.536015
0.468408
0.402959
0.336202
0.271138
0.209804
0.152898
0.100168
0.661585
0.59917
0.527936
0.462277
0.400879
0.338952
0.2778
0.21969
0.165824
0.115718
0.646743
0.588626
0.521053
0.457513
0.39919
0.341408
0.283935
0.228732
0.177445
0.129624
0.63326
0.578775
0.515005
0.453832
0.397976
0.343608
0.289492
0.236973
0.187921
0.142088
0.621103
0.569724
0.509628
0.450977
0.397241
0.345641
0.294479
0.244443
0.197375
0.153286
0.610216
0.561507
0.504826
0.448728
0.396912
0.347567
0.298935
0.251162
0.20589
0.163351
0.600528
0.554112
0.500537
0.446924
0.396894
0.349418
0.302913
0.257163
0.213525
0.172377
0.591962
0.547511
0.496711
0.44545
0.397092
0.351194
0.30646
0.262482
0.220323
0.180431
0.584449
0.541666
0.493312
0.444223
0.39742
0.352875
0.309608
0.267154
0.226318
0.187562
0.577926
0.53654
0.490309
0.443182
0.397806
0.35443
0.312376
0.271211
0.231541
0.193804
0.572342
0.532103
0.487678
0.442282
0.39819
0.35582
0.314763
0.274674
0.236016
0.199184
0.567656
0.528332
0.485404
0.441489
0.398517
0.357003
0.31676
0.277556
0.23976
0.203724
0.563837
0.525211
0.483477
0.440778
0.398744
0.357937
0.318346
0.279858
0.242783
0.207435
0.560854
0.52272
0.48188
0.440124
0.398834
0.358587
0.319507
0.281586
0.245095
0.210324
0.558678
0.520824
0.480573
0.43947
0.398721
0.358899
0.320213
0.282737
0.246724
0.212413
0.557291
0.519524
0.479541
0.438759
0.398303
0.358752
0.320352
0.283223
0.247608
0.213747
0.556732
0.518979
0.479013
0.438221
0.397763
0.358256
0.319965
0.283011
0.247588
0.213939
)
;

boundaryField
{
    bottom
    {
        type            symmetryPlane;
    }
    right
    {
        type            fixedValue;
        value           uniform 0;
    }
    top
    {
        type            symmetryPlane;
    }
    left
    {
        type            fixedValue;
        value           uniform 1;
    }
    cylinder
    {
        type            zeroGradient;
    }
    defaultFaces
    {
        type            empty;
    }
}


// ************************************************************************* //
