/*--------------------------------*- C++ -*----------------------------------*\
| =========                 |                                                 |
| \\      /  F ield         | OpenFOAM: The Open Source CFD Toolbox           |
|  \\    /   O peration     | Version:  4.1                                   |
|   \\  /    A nd           | Web:      www.OpenFOAM.org                      |
|    \\/     M anipulation  |                                                 |
\*---------------------------------------------------------------------------*/
FoamFile
{
    version     2.0;
    format      ascii;
    class       surfaceScalarField;
    location    "8.3";
    object      phi;
}
// * * * * * * * * * * * * * * * * * * * * * * * * * * * * * * * * * * * * * //

dimensions      [0 3 -1 0 0 0 0];

internalField   nonuniform List<scalar> 
3890
(
0.000269932
0.00262001
-0.00288995
0.00234473
0.00107489
-0.00314969
0.00711964
-0.00509019
0.000315278
0.015055
-0.0145204
0.00658501
0.025882
-0.0256376
0.0148106
0.0386866
-0.0368219
0.0240174
0.0522757
-0.0468353
0.0332462
0.0656852
-0.0551248
0.0417152
0.0780541
-0.0615827
0.0492137
-0.0658145
0.0555289
0.0883397
0.000563146
0.00205687
0.0037184
-0.00208037
0.0104182
-0.01179
0.0206283
-0.0247304
0.0332052
-0.0382145
0.0465527
-0.0501693
0.0593235
-0.0596061
0.0706733
-0.0664746
0.0801146
-0.0710239
-0.0739721
0.0882721
0.000990361
0.00106651
0.00551321
-0.00660322
0.0142353
-0.0205121
0.0260934
-0.0365885
0.0390255
-0.0511466
0.0512349
-0.0623788
0.0617373
-0.0701085
0.07026
-0.0749973
0.0771412
-0.0779051
-0.0797284
0.0828975
0.00154799
-0.000481484
0.00761473
-0.01267
0.0179908
-0.0308882
0.0303101
-0.0489078
0.0421193
-0.0629558
0.052082
-0.0723415
0.0599364
-0.0779629
0.0660597
-0.0811206
0.0710389
-0.0828843
-0.0840269
0.0753373
0.0022224
-0.00270388
0.00977916
-0.0202267
0.0209571
-0.0420661
0.0324584
-0.0604091
0.0422179
-0.0727154
0.0497174
-0.079841
0.0553364
-0.0835818
0.0597181
-0.0855024
0.06344
-0.0866062
-0.0875096
0.0669228
0.00298246
-0.00568635
0.011649
-0.0288932
0.022573
-0.0529902
0.0323859
-0.070222
0.0398697
-0.0801991
0.0452251
-0.0851964
0.0491442
-0.087501
0.0522842
-0.0886424
0.0551088
-0.0894308
-0.0901962
0.0577954
0.00374508
-0.00943142
0.0128734
-0.0380216
0.0226787
-0.0627955
0.0304631
-0.0780064
0.035854
-0.08559
0.039483
-0.0888254
0.0421129
-0.0901308
0.044297
-0.0908265
0.0463294
-0.0914632
-0.092194
0.0483272
0.00438509
-0.0138165
0.0132456
-0.046882
0.0214473
-0.0709972
0.027221
-0.0837801
0.0308249
-0.0891939
0.0330805
-0.091081
0.0346838
-0.0917341
0.0360414
-0.0921841
0.037334
-0.0927558
-0.0934633
0.0386034
0.00477961
-0.0185961
0.0127567
-0.0548591
0.0191937
-0.0774341
0.0231412
-0.0877277
0.0252561
-0.0913088
0.0263893
-0.0922141
0.0271104
-0.0924552
0.0276974
-0.092771
0.02824
-0.0932985
-0.0939816
0.0287583
0.00485772
-0.0234539
0.0115805
-0.0615819
0.016257
-0.0821107
0.0186024
-0.090073
0.0194701
-0.0921765
0.0196407
-0.0923847
0.0195513
-0.0923659
0.0193799
-0.0925996
0.0191727
-0.0930913
0.0189302
-0.093739
-0.000968689
0.000968689
-0.0028258
0.00185711
-0.005102
0.00227619
-0.0075688
0.0024668
-0.0101131
0.00254431
-0.0126823
0.00256917
-0.0152565
0.00257421
-0.0178355
0.00257903
-0.0204379
0.00260238
0.00267105
-0.023109
-0.000851089
0.00181978
-0.00250097
0.003507
-0.00452255
0.00429777
-0.00668509
0.00462934
-0.0088631
0.00472232
-0.0109871
0.00469313
-0.0130188
0.00460591
-0.0149414
0.00450164
-0.0167556
0.00441666
0.00442
-0.0185046
-0.000645387
0.00246517
-0.00193295
0.00479456
-0.00349639
0.00586121
-0.00511299
0.00624594
-0.00664309
0.00625243
-0.00799245
0.00604249
-0.00909219
0.00570565
-0.00989626
0.00530571
-0.0103767
0.00489712
0.0045504
-0.0105071
-0.000406962
0.00287213
-0.00125039
0.00563799
-0.00223788
0.0068487
-0.00316277
0.00717083
-0.00387782
0.00696749
-0.00426937
0.00643404
-0.00423735
0.00567363
-0.00368929
0.00475765
-0.00255187
0.0037597
0.00284019
-0.000841652
-0.000191936
0.00306407
-0.000593327
0.00603939
-0.000974066
0.00722943
-0.00114597
0.00734273
-0.000957734
0.00677925
-0.000281541
0.00575784
0.00100492
0.00438716
0.00302217
0.0027404
0.00587683
0.000905038
-0.00112647
0.00984349
-4.23939e-05
0.00310646
-6.36926e-05
0.00606068
0.000128519
0.00703722
0.000729602
0.00674165
0.00190767
0.00560119
0.00381742
0.00384809
0.00660755
0.00159704
0.01042
-0.00107205
0.0152683
-0.00394325
-0.00768917
0.021831
2.70806e-05
0.00307938
0.000293531
0.00579423
0.00102823
0.00630252
0.0024551
0.00531477
0.00479712
0.00325917
0.00826072
0.000384491
0.0130243
-0.00316659
0.0192226
-0.00727029
0.0266427
-0.0113633
-0.0172552
0.0362087
3.88987e-05
0.00304048
0.000553412
0.00527972
0.00186873
0.0049872
0.00429893
0.00288458
0.00814941
-0.000591304
0.0136767
-0.00514278
0.020993
-0.0104829
0.030073
-0.0163503
0.0405512
-0.0218416
-0.029548
0.052844
4.49728e-05
0.00299551
0.000865665
0.00445903
0.00295394
0.00289893
0.00675558
-0.000917065
0.0126301
-0.00646583
0.0207216
-0.0132343
0.0309056
-0.0206669
0.0427449
-0.0281896
0.0559476
-0.0350443
-0.0430344
0.069434
0.00010556
0.0014149
0.00462911
0.0102971
0.0186418
0.0294249
0.0420042
0.0555299
0.0696993
0.0821938
-0.0246809
0.00157195
-0.0261599
0.00147896
-0.0275196
0.00135977
-0.0287503
0.00123063
-0.0298399
0.00108966
-0.0307751
0.000935178
-0.0315406
0.000765519
-0.0321197
0.000579037
-0.0324939
0.000374236
-0.0326415
0.00014761
-0.0325506
-9.08634e-05
-0.0322149
-0.000335699
-0.0316044
-0.00061058
-0.0306892
-0.000915123
-0.0294365
-0.00125273
-0.0278116
-0.00162489
-0.0257924
-0.00201922
-0.0233853
-0.0024071
-0.0205952
-0.0027901
-0.00317431
-0.0197692
0.00283655
-0.0209679
0.00267762
-0.0220646
0.00245654
-0.0230497
0.00221572
-0.0239104
0.00195033
-0.0246332
0.00165799
-0.0252032
0.00133556
-0.0256035
0.000979324
-0.0258154
0.000586087
-0.0258184
0.00015059
-0.025626
-0.000283177
-0.0252128
-0.000748901
-0.0245617
-0.00126171
-0.0236555
-0.00182133
-0.0224762
-0.00243199
-0.0210033
-0.00309781
-0.0192126
-0.00380994
-0.0170896
-0.00453012
-0.0146573
-0.00522243
-0.00596273
-0.0112594
0.00358886
-0.011935
0.00335321
-0.012561
0.00308255
-0.0131074
0.00276203
-0.013559
0.00240194
-0.0139028
0.0020018
-0.0141249
0.00155765
-0.0142102
0.00106462
-0.0141253
0.000501225
-0.0138854
-8.93199e-05
-0.0134872
-0.000681393
-0.0129021
-0.00133394
-0.0121268
-0.00203699
-0.0111583
-0.00278988
-0.00999677
-0.00359351
-0.00864537
-0.00444921
-0.00710025
-0.00535506
-0.00532853
-0.00630185
-0.00333044
-0.00722051
-0.00790391
-0.000759388
0.00350659
-0.000835184
0.00342901
-0.000869156
0.00311652
-0.000849885
0.00274276
-0.000773292
0.00232534
-0.000626195
0.0018547
-0.000389699
0.00132115
-4.72839e-05
0.00072221
0.000411522
4.24204e-05
0.000942218
-0.000620016
0.00162413
-0.00136331
0.00245244
-0.00216225
0.00342796
-0.00301251
0.00454718
-0.0039091
0.00580051
-0.00484685
0.00717162
-0.00582031
0.00863693
-0.00682037
0.01018
-0.00784492
0.0117783
-0.00881881
-0.00977716
0.0104822
0.00286785
0.0110761
0.00283517
0.0116413
0.00255127
0.0122416
0.00214246
0.012877
0.00168993
0.0135536
0.00117817
0.0142864
0.000588326
0.0151001
-9.15288e-05
0.0159381
-0.000795529
0.0168947
-0.00157664
0.0179507
-0.00241928
0.0191084
-0.00331995
0.0203676
-0.00427172
0.0217225
-0.00526404
0.0231615
-0.00628582
0.0246657
-0.00732456
0.0262027
-0.00835737
0.0277459
-0.00938813
0.0292422
-0.0103151
-0.0113532
0.0229477
0.00175109
0.024018
0.00176494
0.0250727
0.00149653
0.0261602
0.00105502
0.0272808
0.000569332
0.0284538
5.08675e-06
0.0296421
-0.000599967
0.0308564
-0.00130583
0.0321446
-0.00208373
0.0334987
-0.00293069
0.0349224
-0.003843
0.036414
-0.0048115
0.0379691
-0.00582685
0.0395771
-0.00687206
0.041224
-0.00793267
0.042888
-0.00898859
0.0445392
-0.0100086
0.0461513
-0.0110002
0.0476646
-0.0118284
-0.0127969
0.0374492
0.000510635
0.0387127
0.000501412
0.0400422
0.000167017
0.0414184
-0.000321185
0.0428412
-0.000853484
0.0442877
-0.00144133
0.0457977
-0.00211005
0.0473569
-0.00286496
0.0489687
-0.0036956
0.0506316
-0.00459355
0.0523427
-0.00555413
0.0540934
-0.00656217
0.0558744
-0.00760786
0.0576682
-0.00866583
0.059459
-0.00972353
0.0612196
-0.0107492
0.0629279
-0.0117168
0.0645491
-0.0126215
0.0660616
-0.0133409
-0.0141479
0.0539953
-0.000640693
0.0552303
-0.000733553
0.0565532
-0.0011559
0.0579692
-0.00173717
0.0594554
-0.00233973
0.0610183
-0.00300417
0.0626588
-0.00375058
0.0643618
-0.00456791
0.0661167
-0.00545054
0.0679133
-0.00639013
0.0697406
-0.00738147
0.0715821
-0.00840362
0.0734227
-0.00944851
0.0752396
-0.0104827
0.0770164
-0.0115003
0.0787225
-0.0124553
0.080346
-0.0133403
0.081844
-0.0141195
0.0832381
-0.014735
-0.0153466
0.0703885
-0.00159514
0.0715305
-0.00187559
0.0728414
-0.00246678
0.0742155
-0.00311131
0.0756796
-0.00380379
0.0772355
-0.00456011
0.0788602
-0.0053752
0.0805331
-0.00624088
0.0822409
-0.00715836
0.0839695
-0.00811867
0.0857039
-0.00911589
0.0874265
-0.0101262
0.0891208
-0.0111428
0.0907666
-0.0121285
0.0923483
-0.0130821
0.0938427
-0.0139497
0.0952431
-0.0147407
0.096514
-0.0153904
0.0976875
-0.0159085
-0.0163399
0.0834234
-0.00282467
0.0848763
-0.00332849
0.0862626
-0.00385314
0.0876598
-0.00450848
0.0890876
-0.00523161
0.0905426
-0.00601515
0.0920198
-0.00685239
0.0935137
-0.00773477
0.0950168
-0.00866146
0.09652
-0.00962181
0.0980126
-0.0106086
0.0994842
-0.0115978
0.100921
-0.01258
0.102314
-0.0135207
0.103647
-0.0144151
0.104913
-0.0152164
0.106103
-0.0159303
0.107211
-0.0164984
0.108238
-0.0169351
-0.0171987
0.112513
-0.00211349
-0.113224
0.112032
-0.00284797
0.111726
-0.00354679
0.111523
-0.0043055
0.111415
-0.00512342
0.111373
-0.00597347
0.111367
-0.0068463
0.111369
-0.00773668
0.111354
-0.0086463
0.111298
-0.00956655
0.111182
-0.0104921
0.110987
-0.0114032
0.110699
-0.012292
0.110309
-0.0131306
0.109808
-0.013914
0.109199
-0.014607
0.108478
-0.0152096
0.107663
-0.0156834
0.106754
-0.0160262
-0.0161903
0.119216
-0.00183014
-0.119499
0.118976
-0.00260838
0.118795
-0.00336577
0.118635
-0.00414543
0.118473
-0.00496152
0.118301
-0.00580151
0.11811
-0.00665511
0.117889
-0.00751523
0.117623
-0.00838104
0.117302
-0.00924468
0.116911
-0.0101013
0.116442
-0.0109348
0.115888
-0.0117377
0.115246
-0.0124883
0.114512
-0.0131803
0.113693
-0.0137881
0.112791
-0.0143077
0.11182
-0.0147123
0.11079
-0.0149967
-0.0151587
0.123057
-0.00153983
-0.123347
0.122846
-0.00239747
0.122681
-0.0032006
0.122522
-0.00398657
0.122342
-0.00478125
0.122128
-0.005588
0.121875
-0.00640156
0.121574
-0.00721438
0.121216
-0.00802374
0.120794
-0.00882275
0.1203
-0.00960691
0.119729
-0.010364
0.119078
-0.0110863
0.118348
-0.0117581
0.117538
-0.0123708
0.116659
-0.0129086
0.115712
-0.0133612
0.114719
-0.0137188
0.113687
-0.0139653
-0.0141135
0.125445
-0.00135745
-0.125627
0.125277
-0.00222955
0.125121
-0.00304528
0.124958
-0.00382295
0.124765
-0.00458886
0.124532
-0.0053546
0.124251
-0.00612048
0.123917
-0.0068804
0.123524
-0.00763069
0.123066
-0.00836517
0.122539
-0.00907972
0.12194
-0.00976513
0.121268
-0.0104141
0.120526
-0.0110156
0.119715
-0.0115598
0.118844
-0.012038
0.117919
-0.0124359
0.116956
-0.0127561
0.115962
-0.0129708
-0.013112
0.127185
-0.00126834
-0.127274
0.127062
-0.0021067
0.126923
-0.00290681
0.126764
-0.00366365
0.12657
-0.00439527
0.126332
-0.00511605
0.126042
-0.00583095
0.125698
-0.00653619
0.125295
-0.007228
0.124831
-0.00790062
0.124301
-0.00855024
0.123706
-0.00916981
0.123045
-0.00975289
0.122321
-0.0102915
0.121537
-0.010776
0.120701
-0.0112022
0.119819
-0.0115543
0.118905
-0.0118413
0.117964
-0.0120304
-0.0121649
0.128789
-0.00122396
-0.128834
0.128697
-0.00201434
0.128572
-0.00278164
0.128415
-0.00350664
0.128219
-0.00419929
0.127976
-0.00487353
0.127682
-0.00553698
0.127334
-0.00618798
0.126929
-0.0068233
0.126466
-0.0074375
0.125943
-0.00802713
0.12536
-0.00858655
0.124717
-0.0091103
0.124018
-0.00959263
0.123267
-0.0100245
0.122469
-0.0104046
0.121632
-0.0107169
0.120765
-0.0109739
0.119876
-0.0111415
-0.0112668
0.130482
-0.00120118
-0.130505
0.130406
-0.00193803
0.130285
-0.00266069
0.130123
-0.00334503
0.129919
-0.00399499
0.129668
-0.00462223
0.129366
-0.00523507
0.129011
-0.00583335
0.128603
-0.00641463
0.128139
-0.00697392
0.12762
-0.00750812
0.127046
-0.00801255
0.126418
-0.00848272
0.12574
-0.00891432
0.125015
-0.00929941
0.124249
-0.00963811
0.123447
-0.00991539
0.122618
-0.0101449
0.12177
-0.0102935
-0.010408
0.132303
-0.0011877
-0.132316
0.13223
-0.00186495
0.132104
-0.00253539
0.131932
-0.0031732
0.131715
-0.0037777
0.131451
-0.0043576
0.131136
-0.00492083
0.130771
-0.00546807
0.130354
-0.0059977
0.129885
-0.00650521
0.129365
-0.00698793
0.128794
-0.00744178
0.128175
-0.0078632
0.127509
-0.00824877
0.126802
-0.00859182
0.126057
-0.00889307
0.12528
-0.00913913
0.124479
-0.00934322
0.12366
-0.00947487
-0.00957772
0.134207
-0.0011705
-0.134224
0.134128
-0.00178567
0.133993
-0.00240024
0.133808
-0.00298796
0.133575
-0.00354485
0.133294
-0.00407696
0.132965
-0.00459131
0.132585
-0.00508897
0.132157
-0.00556899
0.131679
-0.00602735
0.131153
-0.00646181
0.13058
-0.00686873
0.129962
-0.00724535
0.129302
-0.0075888
0.128604
-0.00789366
0.127871
-0.00816078
0.127111
-0.00837866
0.126327
-0.00855922
0.125528
-0.00867558
-0.00876664
0.136133
-0.00114065
-0.136163
0.136042
-0.00169468
0.135894
-0.0022521
0.135693
-0.00278759
0.135444
-0.00329528
0.135146
-0.00377908
0.1348
-0.00424504
0.134405
-0.00469429
0.133962
-0.00512639
0.133473
-0.00553775
0.132937
-0.00592657
0.132358
-0.00628949
0.131737
-0.00662448
0.131077
-0.00692899
0.130383
-0.00719879
0.129656
-0.00743454
0.128904
-0.00762669
0.128131
-0.00778546
0.127343
-0.00788785
-0.00796742
0.138022
-0.00109475
-0.138068
0.137916
-0.00158903
0.137753
-0.00208903
0.137537
-0.0025711
0.13727
-0.00302851
0.136954
-0.00346364
0.136591
-0.00388158
0.13618
-0.0042834
0.135723
-0.00466896
0.13522
-0.00503508
0.134674
-0.00538032
0.134086
-0.00570163
0.133459
-0.00599752
0.132796
-0.00626569
0.1321
-0.00650293
0.131375
-0.00670959
0.130626
-0.006878
0.129857
-0.00701653
0.129075
-0.00710607
-0.0071747
0.139827
-0.00103165
-0.13989
0.139705
-0.00146721
0.139526
-0.00190991
0.139293
-0.00233808
0.139009
-0.00274465
0.138677
-0.00313094
0.138296
-0.00350123
0.137869
-0.00385641
0.137397
-0.00419658
0.136881
-0.00451889
0.136323
-0.00482225
0.135725
-0.00510384
0.13509
-0.00536267
0.134421
-0.00559659
0.133721
-0.0058033
0.132995
-0.00598278
0.132246
-0.00612906
0.131478
-0.00624873
0.130698
-0.00632632
-0.00638472
0.141511
-0.000950753
-0.141592
0.141373
-0.00132869
0.141177
-0.00171454
0.140928
-0.00208872
0.140628
-0.00244428
0.140278
-0.00278175
0.139882
-0.00310474
0.13944
-0.00341399
0.138953
-0.00370972
0.138423
-0.00398941
0.137853
-0.00425224
0.137245
-0.00449566
0.136601
-0.00471907
0.135925
-0.00492046
0.13522
-0.00509826
0.13449
-0.00525213
0.133738
-0.0053776
0.132969
-0.0054796
0.132189
-0.00554599
-0.0055949
0.143043
-0.000852305
-0.143142
0.142889
-0.00117394
0.142678
-0.00150354
0.142413
-0.00182389
0.142097
-0.00212843
0.141732
-0.00241723
0.141321
-0.00269328
0.140864
-0.00295721
0.140364
-0.00320929
0.139822
-0.00344733
0.13924
-0.00367074
0.138622
-0.00387724
0.137969
-0.00406654
0.137286
-0.00423676
0.136574
-0.00438696
0.135839
-0.00451652
0.135083
-0.00462224
0.134311
-0.00470763
0.133529
-0.00476344
-0.0048036
0.144401
-0.000737577
-0.144515
0.144231
-0.0010042
0.144005
-0.00127819
0.143726
-0.00154491
0.143397
-0.00179852
0.143018
-0.00203882
0.142593
-0.00226827
0.142123
-0.00248738
0.14161
-0.00269646
0.141057
-0.00289365
0.140465
-0.00307851
0.139836
-0.0032491
0.139175
-0.00340532
0.138484
-0.00354551
0.137766
-0.00366914
0.137025
-0.00377546
0.136265
-0.0038623
0.135489
-0.00393196
0.134704
-0.0039777
-0.00400981
0.145565
-0.000608527
-0.145694
0.145382
-0.000821215
0.145144
-0.00104013
0.144853
-0.00125342
0.14451
-0.00145618
0.14412
-0.00164815
0.143683
-0.00183128
0.143201
-0.00200601
0.142677
-0.00217259
0.142113
-0.00232956
0.141511
-0.00247656
0.140874
-0.00261206
0.140205
-0.00273601
0.139507
-0.00284707
0.138782
-0.00294495
0.138036
-0.00302892
0.137271
-0.00309753
0.136491
-0.00315224
0.135702
-0.00318832
-0.00321303
0.146524
-0.000467294
-0.146665
0.146329
-0.000626884
0.14608
-0.000791137
0.145778
-0.000951117
0.145425
-0.00110308
0.145024
-0.00124688
0.144576
-0.00138392
0.144085
-0.00151463
0.143552
-0.00163912
0.142978
-0.00175639
0.142368
-0.00186607
0.141723
-0.00196713
0.141046
-0.00205942
0.140341
-0.00214211
0.139611
-0.00221485
0.13886
-0.00227721
0.13809
-0.0023281
0.137306
-0.00236853
0.136513
-0.00239528
-0.00241315
0.147264
-0.000316085
-0.147415
0.14706
-0.000423219
0.146802
-0.000533064
0.146491
-0.00063977
0.146129
-0.000740985
0.145719
-0.000836761
0.145263
-0.000927944
0.144763
-0.00101495
0.144221
-0.00109768
0.143641
-0.00117568
0.143023
-0.00124844
0.142372
-0.00131562
0.141689
-0.00137671
0.140978
-0.00143164
0.140243
-0.00147966
0.139487
-0.00152108
0.138714
-0.00155457
0.137926
-0.00158132
0.13713
-0.00159891
-0.00161052
0.14777
-0.000157721
-0.147929
0.14756
-0.000213018
0.147295
-0.000268371
0.146977
-0.000321739
0.146609
-0.000372206
0.146192
-0.00042007
0.14573
-0.000465553
0.145224
-0.000509133
0.144676
-0.00055034
0.14409
-0.000589445
0.143467
-0.000625522
0.142811
-0.000659293
0.142124
-0.000689365
0.141409
-0.000717209
0.14067
-0.0007405
0.139911
-0.000761901
0.139134
-0.000777555
0.138345
-0.000792104
0.137545
-0.00079932
-0.000806241
0.148027
-0.148185
0.147814
0.147546
0.147224
0.146852
0.146432
0.145966
0.145457
0.144907
0.144317
0.143692
0.143032
0.142343
0.141626
0.140885
0.140123
0.139346
0.138554
0.137754
0.0962156
0.0172741
-0.0945595
0.0980866
0.0268873
0.100205
0.036485
0.102533
0.0459989
0.105128
0.055201
0.107933
0.0641173
0.110632
0.0726382
0.113661
0.0798691
0.113842
0.0880903
0.0889584
0.0971197
0.015754
-0.0955995
0.0989037
0.0251033
0.100986
0.0344025
0.103378
0.0436076
0.105972
0.052607
0.109075
0.0610138
0.111931
0.0697818
0.115677
0.0761236
0.118495
0.0852726
0.0879538
0.0982275
0.0143865
-0.0968601
0.0999163
0.0234144
0.101892
0.0324263
0.104292
0.041208
0.106838
0.050061
0.11
0.0578519
0.113126
0.0666555
0.116705
0.0725449
0.120725
0.0812521
0.0853322
0.0994647
0.0131485
-0.0982267
0.101078
0.0218016
0.102969
0.0305353
0.105323
0.0388534
0.107887
0.0474973
0.110925
0.0548136
0.114297
0.0632832
0.117675
0.0691674
0.121974
0.0769534
0.0816787
0.100786
0.012009
-0.0996462
0.102331
0.020256
0.104194
0.0286728
0.106484
0.0365636
0.109117
0.0448635
0.11204
0.0518906
0.115528
0.0597953
0.118949
0.0657468
0.123174
0.0727282
0.0775791
0.102152
0.0109414
-0.101085
0.103634
0.018774
0.105502
0.0268048
0.107749
0.0343174
0.110449
0.0421632
0.113367
0.0489724
0.11688
0.0562829
0.120451
0.0621752
0.12458
0.0685997
0.0733254
0.103529
0.00993053
-0.102518
0.104958
0.0173445
0.106835
0.0249278
0.109078
0.0320751
0.11182
0.0394209
0.114815
0.0459779
0.118334
0.0527638
0.122044
0.058465
0.126169
0.0644747
0.0689891
0.104886
0.00897123
-0.103927
0.106279
0.0159517
0.108158
0.0230489
0.110427
0.0298063
0.113198
0.0366493
0.11629
0.0428855
0.119846
0.0492083
0.123677
0.0546343
0.127884
0.0602669
0.0645574
0.106202
0.00806158
-0.105292
0.107572
0.0145819
0.109449
0.0211718
0.111756
0.0274986
0.114562
0.0338438
0.117748
0.0396994
0.121379
0.0455777
0.125331
0.050682
0.129666
0.0559318
0.0599992
0.10746
0.00719856
-0.106597
0.108815
0.013227
0.110692
0.0192943
0.11304
0.0251507
0.11589
0.0309936
0.119165
0.0364251
0.122893
0.0418493
0.126971
0.0466039
0.13145
0.0514531
0.0552865
0.108646
0.00637722
-0.107824
0.109989
0.0118833
0.111872
0.0174115
0.114258
0.0227646
0.117161
0.028091
0.120519
0.0330669
0.124351
0.0380174
0.128556
0.0423985
0.133183
0.0468262
0.0504021
0.109746
0.00559167
-0.108961
0.111081
0.0105485
0.112973
0.0155196
0.115395
0.0203424
0.118352
0.0251338
0.121791
0.0296286
0.125723
0.0340847
0.130055
0.0380667
0.134829
0.0420525
0.0453405
0.11075
0.00483594
-0.109994
0.112077
0.00922068
0.113981
0.0136162
0.116437
0.0178862
0.119447
0.0221237
0.122961
0.0261144
0.126989
0.0300569
0.131443
0.0336126
0.136357
0.0371386
0.0401056
0.111645
0.00410435
-0.110913
0.112968
0.00789781
0.114884
0.0117
0.117372
0.015398
0.120431
0.0190643
0.124016
0.0225294
0.128132
0.025941
0.132701
0.0290441
0.137744
0.0320949
0.0347081
0.112425
0.00339166
-0.111712
0.113745
0.00657775
0.115674
0.0097712
0.118191
0.0128803
0.121295
0.0159601
0.124945
0.0188803
0.129139
0.0217463
0.133811
0.0243726
0.138971
0.026935
0.0291636
0.113086
0.00269343
-0.112387
0.114405
0.00525889
0.116345
0.00783042
0.118889
0.0103364
0.122033
0.0128168
0.125738
0.0151751
0.130001
0.0174833
0.134762
0.0196116
0.140022
0.0216746
0.0234915
0.113627
0.00200649
-0.11294
0.114946
0.0039407
0.116896
0.00587957
0.119462
0.00777062
0.122638
0.00964122
0.12639
0.0114234
0.130709
0.0131638
0.135544
0.0147764
0.140887
0.0163314
0.0177139
0.114049
0.00132948
-0.113372
0.115366
0.0026239
0.117323
0.00392172
0.119906
0.00518851
0.123106
0.00644093
0.126893
0.00763584
0.131257
0.00880072
0.136149
0.00988371
0.141557
0.0109241
0.0118554
0.114342
0.000664209
-0.113677
0.115657
0.00130963
0.117618
0.00196073
0.12021
0.00259627
0.123427
0.00322436
0.127238
0.00382391
0.131631
0.00440789
0.136563
0.00495165
0.142015
0.00547299
0.0059412
0.114496
-0.113832
0.115806
0.117767
0.120363
0.123587
0.127411
0.131819
0.136771
0.142244
0.0462074
0.0607432
-0.0551517
-0.051799
0.0402991
0.0605419
-0.0546335
0.0345278
0.0607459
-0.0549746
0.0288654
0.0614439
-0.0557815
0.0232559
0.0625648
-0.0569554
0.0176686
0.0641507
-0.0585634
0.0121021
0.0662049
-0.0606384
0.00672339
0.067663
-0.0622843
0.00219121
0.0632286
-0.0586964
0.0380226
-0.0358313
0.0427949
0.066474
-0.0485256
0.0371368
0.0662
0.0316101
0.0662726
0.0262233
0.0668306
0.0209195
0.0678687
0.015652
0.0694182
0.0104394
0.0714175
0.00551259
0.0725898
0.00158948
0.0671517
0.039612
0.0388047
0.0718279
-0.0441586
0.0334613
0.0715434
0.0282189
0.0715149
0.0231216
0.071928
0.0181405
0.0728498
0.013234
0.0743247
0.00844573
0.0762058
0.00407162
0.0769639
0.000869405
0.0703539
0.0404814
0.0339392
0.0767447
-0.038856
0.0290423
0.0764403
0.0242064
0.0763508
0.0194938
0.0766406
0.0149061
0.0774375
0.0104212
0.0788096
0.00611585
0.0805111
0.00239812
0.0806816
-2.03911e-05
0.0727724
0.0404611
0.0282587
0.08119
-0.032704
0.0238574
0.0808416
0.0195205
0.0806877
0.0152932
0.080868
0.0111865
0.0815441
0.0072054
0.0827908
0.00346134
0.0842552
0.000411002
0.083732
-0.000781024
0.0739645
0.03968
0.0217791
0.0850858
-0.0256749
0.0179491
0.0846715
0.0141909
0.084446
0.0105329
0.0845259
0.00699305
0.0850839
0.00361199
0.0861718
0.00059246
0.0872747
-0.00148209
0.0858065
-0.00164744
0.0741298
0.0380326
0.0146007
0.0883351
-0.0178501
0.011412
0.0878602
0.0082943
0.0875637
0.00526947
0.0875507
0.00236986
0.0879835
-0.000341593
0.0888833
-0.00255186
0.089485
-0.00356229
0.086817
-0.00252252
0.07309
0.0355101
0.00680769
0.0908773
-0.00934982
0.0043088
0.0903591
0.00190053
0.0899719
-0.000424468
0.0898757
-0.0026597
0.0902188
-0.00462611
0.0908497
-0.00592079
0.0907797
-0.0057508
0.086647
-0.00335963
0.0706989
0.0321504
-0.00150161
0.0927941
-0.000415262
-0.00325826
0.0921157
-0.00494756
0.0916612
-0.00657013
0.0914983
-0.00804612
0.0916947
-0.00917494
0.0919785
-0.00942377
0.0910285
-0.00790895
0.0851321
-0.00408538
0.0668753
0.0280651
-0.010212
0.00926715
-0.0111876
-0.0121259
-0.0129935
-0.0136835
-0.0138815
-0.0129261
-0.0099046
-0.00461121
0.0481573
0.0045416
-0.0526989
0.0434488
0.00470845
0.0385467
0.00490215
0.033427
0.00511963
0.0280578
0.00536925
0.0223954
0.00566238
0.0163898
0.00600556
0.0100632
0.00632661
0.00391221
0.00615099
0.00391221
0.0484591
0.00917472
-0.0530923
0.0436714
0.00949623
0.0387026
0.00987093
0.033529
0.0102932
0.0281181
0.0107801
0.0224257
0.0113548
0.0163993
0.012032
0.0100587
0.0126672
0.00391343
0.0122962
0.00782564
0.0490099
0.0139804
-0.0538156
0.0440727
0.0144335
0.0389782
0.0149654
0.0337025
0.015569
0.0282121
0.0162705
0.0224621
0.0171048
0.0163995
0.0180946
0.0100442
0.0190225
0.00389879
0.0184416
0.0117244
0.0497078
0.019015
-0.0547425
0.0445718
0.0195695
0.0393098
0.0202274
0.0338978
0.020981
0.0283023
0.0218659
0.0224777
0.0229294
0.0163705
0.0242018
0.0100007
0.0253924
0.00386887
0.0245735
0.0155933
0.0504154
0.0243072
-0.0557076
0.0450537
0.0249312
0.0396017
0.0256794
0.0340381
0.0265445
0.0283294
0.0275747
0.0224281
0.0288307
0.01628
0.0303499
0.00990783
0.0317645
0.00381245
0.0306688
0.0194058
0.0509949
0.0298403
-0.056528
0.0454135
0.0305126
0.0397702
0.0313228
0.0340541
0.0322607
0.0282353
0.0333934
0.0222658
0.0348003
0.0160916
0.0365241
0.00974105
0.0381151
0.00371788
0.036692
0.0231236
0.0512349
0.0356041
-0.0569987
0.0454409
0.0363066
0.0396322
0.0371314
0.0338031
0.0380898
0.0279134
0.0392831
0.0219118
0.0408019
0.015749
0.0426869
0.00946539
0.0443986
0.00357407
0.0425833
0.0266977
0.0512027
0.041536
-0.0571347
0.0451981
0.0423113
0.0392398
0.0430896
0.0333166
0.044013
0.027372
0.0452277
0.0213571
0.0468168
0.0152332
0.0488108
0.00906022
0.0505717
0.00337213
0.0482714
0.0300698
0.050196
0.0478415
-0.0565015
0.0440509
0.0484564
0.0381297
0.0490108
0.0322675
0.0498752
0.0263895
0.0511057
0.020464
0.0527423
0.014465
0.0548098
0.00847957
0.0565571
0.00307664
0.0536744
0.0331465
0.0489807
-0.0562908
0.0428036
0.0368399
0.0309335
0.0250838
0.0192627
0.0134342
0.00770696
0.00268488
0.0572871
-0.000214504
0.0574995
-0.000212375
0.0577089
-0.000209471
0.0579083
-0.000199392
0.058091
-0.000182614
0.0582508
-0.000159824
0.0583816
-0.000130779
0.0584762
-9.46279e-05
0.058526
-4.98209e-05
0.05852
6.03563e-06
0.0584578
6.21966e-05
0.0583261
0.000131707
0.0581118
0.000214252
0.0578004
0.000311409
0.0573751
0.00042533
0.056816
0.000559106
0.0561007
0.000715255
0.0551999
0.00090081
0.0540891
0.0011108
0.00139026
0.0579662
-0.000429956
0.0581747
-0.000420938
0.058376
-0.000410716
0.0585652
-0.000388622
0.058737
-0.000354467
0.0588857
-0.000308498
0.0590048
-0.000249869
0.059087
-0.000176839
0.0591234
-8.61934e-05
0.0591061
2.33322e-05
0.0590305
0.000137805
0.0588843
0.000277873
0.0586546
0.000443983
0.0583266
0.000639419
0.0578835
0.000868431
0.0573052
0.00113736
0.0565695
0.00145096
0.0556461
0.00182426
0.0545117
0.00224513
0.00280972
0.0593027
-0.000621764
0.0594894
-0.000607658
0.0596693
-0.000590632
0.0598366
-0.000555933
0.0599856
-0.000503445
0.0601103
-0.00043325
0.0602044
-0.000343921
0.0602602
-0.00023261
0.0602683
-9.43361e-05
0.060226
6.56788e-05
0.0601221
0.000241706
0.0599454
0.000454508
0.0596832
0.000706227
0.0593205
0.00100214
0.0588404
0.00134847
0.0582225
0.00175527
0.0574448
0.00222863
0.0564752
0.00279395
0.0552937
0.00342656
0.00428787
0.0612397
-0.000775293
0.0613877
-0.000755615
0.0615284
-0.000731343
0.0616562
-0.000683673
0.0617648
-0.000612118
0.0618482
-0.000516624
0.0618996
-0.000395365
0.061911
-0.000243981
0.0618713
-5.45732e-05
0.0617857
0.000151185
0.0616347
0.000392797
0.0614077
0.000681493
0.0610923
0.0010216
0.0606734
0.00142107
0.0601342
0.00188769
0.0594531
0.00243632
0.0586093
0.0030724
0.0575669
0.00383643
0.0563125
0.00468094
0.00585787
0.0637011
-0.000867987
0.0637882
-0.000842665
0.0638671
-0.000810223
0.0639322
-0.000748814
0.0639772
-0.000657112
0.0639955
-0.000534905
0.0639796
-0.00037944
0.0639213
-0.000185731
0.0638163
5.04593e-05
0.0636618
0.000305685
0.0634382
0.00061635
0.0631355
0.000984224
0.0627414
0.0014157
0.0622402
0.00192231
0.0616155
0.00251234
0.060844
0.00320779
0.0599072
0.00400927
0.0587624
0.00498116
0.0574072
0.0060362
0.00755741
0.0665955
-0.000871926
0.0665941
-0.000841259
0.0665827
-0.000798815
0.0665559
-0.000722055
0.0665076
-0.000608738
0.0664309
-0.000458286
0.0663189
-0.00026742
0.0661554
-2.21715e-05
0.0659649
0.000240926
0.0657081
0.000562516
0.0653808
0.000943576
0.0649719
0.00139319
0.064469
0.00191859
0.063855
0.00253632
0.063115
0.00325234
0.0622219
0.00410089
0.0611616
0.00506956
0.0598813
0.00626146
0.058394
0.00752348
0.00942343
0.0698282
-0.000750421
0.0697047
-0.000717736
0.0695675
-0.000661703
0.0694122
-0.000566729
0.0692343
-0.0004308
0.0690264
-0.000250446
0.0687703
-1.12329e-05
0.0684984
0.000249696
0.0681669
0.000572415
0.0677723
0.000957142
0.0673064
0.00140944
0.0667561
0.00194351
0.0661105
0.00256421
0.0653497
0.00329711
0.0644628
0.00413921
0.0634161
0.00514762
0.0622053
0.00628034
0.0607579
0.00770888
0.0591017
0.00917967
0.0115265
0.073311
-0.000459629
0.0730236
-0.000430297
0.0727169
-0.000354987
0.072389
-0.000238826
0.0720338
-7.56506e-05
0.0716506
0.000132809
0.0712483
0.000391031
0.0707933
0.000704744
0.0702858
0.00107987
0.0697153
0.00152766
0.0690732
0.00205156
0.0683439
0.00267281
0.0675189
0.00338914
0.0665729
0.00424316
0.0655022
0.0052099
0.064261
0.00638882
0.0628677
0.00767369
0.0612261
0.00935049
0.059405
0.0110008
0.0137967
0.076967
2.27925e-05
0.0764618
7.48916e-05
0.0759346
0.000172229
0.0753879
0.000307833
0.0748232
0.000489061
0.0742326
0.000723437
0.0736081
0.00101552
0.0729387
0.00137415
0.072218
0.00180061
0.0714339
0.00231173
0.0705793
0.00290622
0.0696352
0.00361688
0.0685983
0.00442602
0.0674344
0.00540706
0.0661537
0.00649057
0.0646796
0.00786291
0.0630676
0.0092857
0.0611221
0.0112961
0.0590858
0.013037
0.016381
0.0807512
0.000844795
0.0799519
0.000874278
0.0791565
0.000967592
0.0783509
0.00111346
0.0775282
0.00131173
0.0766809
0.00157073
0.0758018
0.00189459
0.0748811
0.00229492
0.0739111
0.0027706
0.0728778
0.00334497
0.0717769
0.00400714
0.0705861
0.00480764
0.0693123
0.0056999
0.0679123
0.00680698
0.0664318
0.00797115
0.0647651
0.00952953
0.0630864
0.0109645
0.0610549
0.0133275
0.0592209
0.0148711
0.0193111
0.0782211
0.000815282
0.0782124
0.000882979
0.0781975
0.000982422
0.0781848
0.00112619
0.0781763
0.00132027
0.0781715
0.00157547
0.0781727
0.00189343
0.0781799
0.00228766
0.0781987
0.00275179
0.0782289
0.0033148
0.0782848
0.00395125
0.0783624
0.00473006
0.0784969
0.00556542
0.0786675
0.0066364
0.0789633
0.00767527
0.0793084
0.00918448
0.0799369
0.0103359
0.0806795
0.0125849
0.0822379
0.0133127
0.0167265
0.0848225
0.0820746
0.000831478
0.0820566
0.000900954
0.0820443
0.000994804
0.0820404
0.00113005
0.0820457