/*--------------------------------*- C++ -*----------------------------------*\
| =========                 |                                                 |
| \\      /  F ield         | OpenFOAM: The Open Source CFD Toolbox           |
|  \\    /   O peration     | Version:  4.1                                   |
|   \\  /    A nd           | Web:      www.OpenFOAM.org                      |
|    \\/     M anipulation  |                                                 |
\*---------------------------------------------------------------------------*/
FoamFile
{
    version     2.0;
    format      ascii;
    class       volVectorField;
    location    "8.3";
    object      U;
}
// * * * * * * * * * * * * * * * * * * * * * * * * * * * * * * * * * * * * * //

dimensions      [0 1 -1 0 0 0 0];

internalField   nonuniform List<vector> 
2000
(
(-0.0431076 0.0364808 4.46781e-20)
(-0.0226368 0.044466 0)
(0.0902965 0.0301481 7.10445e-20)
(0.281295 0.00863384 3.1747e-20)
(0.529453 -0.0101964 -5.9153e-20)
(0.802589 -0.0228142 -7.99622e-20)
(1.06974 -0.0276828 2.51579e-20)
(1.30159 -0.0322493 0)
(1.50942 -0.025856 -2.05613e-20)
(1.63289 -0.0356239 0)
(-0.0388379 0.0292734 -2.21119e-20)
(0.0224575 0.0217698 1.95571e-20)
(0.204473 0.00158756 -7.553e-20)
(0.476337 -0.016268 -1.00524e-19)
(0.79043 -0.0245919 -1.00014e-21)
(1.09545 -0.0242044 2.62732e-20)
(1.3558 -0.0187162 -2.53193e-20)
(1.55842 -0.0140687 -2.22511e-20)
(1.70409 -0.00647253 2.05604e-20)
(1.78268 -0.0148502 3.56088e-20)
(-0.0271203 0.0198697 2.40809e-20)
(0.0944598 -0.0026351 -2.25557e-20)
(0.364121 -0.0217 3.80203e-20)
(0.715759 -0.0272264 -1.72157e-21)
(1.0679 -0.0202865 3.06135e-20)
(1.36338 -0.00783461 2.75517e-20)
(1.58175 0.00413916 2.47748e-20)
(1.72705 0.0111538 2.22508e-20)
(1.81487 0.0158104 1.90995e-20)
(1.86948 0.00878342 -1.6868e-20)
(-0.00510287 0.00854523 -7.41187e-22)
(0.198853 -0.0253458 -2.42676e-20)
(0.565701 -0.0329536 0)
(0.973789 -0.0197096 3.37354e-20)
(1.32199 0.00135018 -3.329e-20)
(1.57231 0.0202597 0)
(1.731 0.0325278 0)
(1.82195 0.0371122 0)
(1.87363 0.0383819 -1.91007e-20)
(1.89715 0.030095 3.24048e-20)
(0.0302085 -0.00361938 5.82415e-20)
(0.337762 -0.0404138 7.2518e-23)
(0.792987 -0.0262629 2.28994e-20)
(1.21747 0.00585814 1.79326e-20)
(1.52511 0.0348803 1.67173e-20)
(1.71476 0.0537074 1.40847e-20)
(1.81858 0.062226 0)
(1.87188 0.0632398 9.98146e-21)
(1.8989 0.0605114 -4.18332e-20)
(1.91711 0.0510768 5.46308e-20)
(0.0813423 -0.0143301 -9.20147e-20)
(0.506559 -0.0405678 2.08334e-21)
(1.0207 0.000187705 -4.5527e-20)
(1.42232 0.0453464 4.07694e-20)
(1.67111 0.0752346 -4.8508e-20)
(1.80303 0.0896172 1.57606e-20)
(1.86565 0.0929842 0)
(1.89451 0.0898683 -9.98235e-21)
(1.91134 0.0835872 8.42414e-21)
(1.92453 0.0742032 2.44466e-20)
(0.149259 -0.0202549 0)
(0.692073 -0.0205831 0)
(1.22592 0.0440681 -2.35479e-20)
(1.57941 0.0943523 2.19209e-20)
(1.76734 0.119717 -1.56331e-20)
(1.85217 0.127365 1.46774e-20)
(1.88646 0.124954 2.03405e-20)
(1.90201 0.117689 -1.92267e-20)
(1.91322 0.108349 -1.32727e-20)
(1.9257 0.0983062 6.3426e-21)
(0.232418 -0.0177286 1.8479e-20)
(0.876132 0.0204333 0)
(1.39568 0.101552 -1.10826e-20)
(1.69051 0.149735 4.14509e-20)
(1.82404 0.166966 -2.57668e-20)
(1.87367 0.166694 0)
(1.89023 0.158404 0)
(1.89865 0.146987 0)
(1.90822 0.134764 -1.08864e-20)
(1.92049 0.123938 1.03483e-20)
(0.326184 -0.00378181 -9.45766e-21)
(1.04233 0.0795792 -3.60598e-22)
(1.52562 0.168855 -1.29337e-20)
(1.76128 0.209275 4.88964e-21)
(1.85015 0.216085 4.63514e-21)
(1.87523 0.207429 6.49496e-21)
(1.88138 0.193247 0)
(1.88675 0.177667 -1.37943e-21)
(1.89584 0.162736 -4.93149e-21)
(1.9082 0.150133 3.79368e-21)
(0.423477 0.0230878 0)
(1.18023 0.152316 -8.08854e-21)
(1.61605 0.242478 0)
(1.79789 0.271249 -2.7811e-21)
(1.85234 0.26633 -2.57112e-21)
(1.86129 0.24914 -2.85595e-21)
(1.86197 0.229048 0)
(1.86642 0.209219 1.37957e-21)
(1.87597 0.191448 9.40236e-22)
(1.8889 0.176423 2.56992e-22)
(-0.0099838 0.0095132 0)
(-0.0395287 0.0174266 -3.8462e-21)
(-0.0810486 0.0200733 0)
(-0.12101 0.0204824 -5.08454e-21)
(-0.156993 0.0199464 -1.62038e-21)
(-0.188965 0.0190843 3.04485e-21)
(-0.217198 0.0182149 -2.86751e-21)
(-0.242148 0.0175148 2.76223e-21)
(-0.264509 0.0171338 2.7152e-24)
(-0.285437 0.0172307 2.50207e-21)
(-0.0115937 0.0273064 -1.21687e-20)
(-0.0403921 0.0503727 7.61347e-21)
(-0.0785484 0.0582817 -7.2613e-21)
(-0.114219 0.059516 3.36981e-21)
(-0.145311 0.057818 1.61038e-20)
(-0.171742 0.0550181 -6.0548e-21)
(-0.193707 0.0520817 0)
(-0.211513 0.0495858 -2.75294e-21)
(-0.225584 0.0480199 -2.62841e-21)
(-0.23749 0.0479285 0)
(-0.0145375 0.0416647 8.11625e-21)
(-0.0421849 0.0779562 0)
(-0.0743284 0.0908979 2.19906e-20)
(-0.102223 0.0929519 -2.75755e-20)
(-0.124399 0.0899044 6.49827e-21)
(-0.140801 0.0846701 0)
(-0.151564 0.0788309 0)
(-0.156847 0.0734363 0)
(-0.156451 0.0694491 2.14532e-20)
(-0.151807 0.0680612 -2.03887e-20)
(-0.01831 0.0512443 0)
(-0.0449374 0.0977159 -1.61201e-20)
(-0.0695768 0.114997 2.99807e-20)
(-0.0873487 0.117749 -1.4009e-20)
(-0.0977478 0.113192 1.33453e-20)
(-0.100922 0.105069 -3.78214e-20)
(-0.0970263 0.0953963 -1.88059e-22)
(-0.0863238 0.0855602 2.27019e-20)
(-0.0681357 0.0771865 2.16474e-20)
(-0.0404483 0.0733297 -3.08599e-20)
(-0.0224237 0.0558631 1.72772e-20)
(-0.0485691 0.108548 -3.31602e-20)
(-0.0652719 0.128753 -1.25547e-22)
(-0.071522 0.131729 1.53008e-22)
(-0.0680095 0.125495 1.3515e-20)
(-0.05526 0.114327 -3.82671e-20)
(-0.0334957 0.100427 0)
(-0.00312754 0.085191 -1.15198e-20)
(0.0362104 0.0705933 1.09196e-20)
(0.091439 0.0617866 -4.18366e-20)
(-0.0266038 0.056338 -2.82676e-22)
(-0.0527879 0.110723 3.36392e-20)
(-0.0615392 0.131597 1.54916e-20)
(-0.0550187 0.133653 1.48904e-20)
(-0.0350589 0.125262 1.35836e-20)
(-0.00254018 0.111019 1.28241e-20)
(0.0423287 0.0932393 0)
(0.0991402 0.0732594 1.15189e-20)
(0.164555 0.0521048 3.23989e-20)
(0.261509 0.0364111 -1.06904e-20)
(-0.0308502 0.0540692 4.8791e-23)
(-0.0569087 0.105677 1.73954e-20)
(-0.0568629 0.124192 0)
(-0.0350726 0.123423 -2.91276e-20)
(0.00604437 0.111852 2.75923e-20)
(0.0653731 0.0942244 0)
(0.142452 0.0731386 0)
(0.237659 0.0507476 0)
(0.334899 0.0250892 -2.18644e-20)
(0.49321 0.00448778 -4.15464e-20)
(-0.0352015 0.0504686 -1.90872e-20)
(-0.0594866 0.0953214 1.78795e-20)
(-0.0473204 0.108203 3.28625e-20)
(-0.00436611 0.102439 4.11252e-22)
(0.0669075 0.0865511 2.78754e-20)
(0.164835 0.0654741 2.5997e-20)
(0.28679 0.0419546 2.43892e-20)
(0.433177 0.0202376 2.2896e-20)
(0.567449 -0.00585865 2.18612e-20)
(0.794101 -0.0242386 -2.00224e-20)
(-0.0393986 0.0463968 -6.01535e-20)
(-0.0577163 0.0812601 -1.77759e-20)
(-0.025994 0.0858304 -6.59101e-20)
(0.0492472 0.0735517 -3.01863e-20)
(0.16492 0.05329 3.6294e-22)
(0.31615 0.0302453 -2.57736e-20)
(0.494413 0.00743907 2.45381e-20)
(0.692873 -0.0107609 -2.28927e-20)
(0.868771 -0.0313264 2.15441e-20)
(1.13131 -0.0397307 -4.07284e-20)
(-0.0425615 0.0419282 4.04772e-20)
(-0.0472742 0.0642989 0)
(0.016484 0.0591532 3.3671e-20)
(0.140362 0.0406495 -4.2339e-23)
(0.316905 0.0183698 5.05918e-22)
(0.531569 -0.00254968 2.61411e-20)
(0.765729 -0.018589 -7.37524e-20)
(0.996257 -0.0310671 0)
(1.20772 -0.0389997 -2.15408e-20)
(1.43365 -0.0390008 0)
(-0.30584 0.0176117 0)
(-0.327324 0.0166526 -2.48896e-21)
(-0.347264 0.0154561 5.00024e-21)
(-0.365767 0.0141616 -2.1956e-21)
(-0.382715 0.0127467 0)
(-0.397906 0.0111953 2.47014e-21)
(-0.411125 0.00949263 -2.48238e-21)
(-0.422123 0.00762382 0)
(-0.430606 0.00557674 0)
(-0.436286 0.0033519 2.86883e-22)
(-0.43895 0.00092793 0)
(-0.4384 -0.00178701 0)
(-0.434315 -0.00480395 0)
(-0.4262 -0.00815577 0)
(-0.413572 -0.0118817 -3.37428e-22)
(-0.396151 -0.015972 3.39176e-22)
(-0.373655 -0.0202526 0)
(-0.344167 -0.0244367 -6.2539e-23)
(-0.303675 -0.0286132 6.28681e-23)
(-0.260601 -0.0328706 0)
(-0.250276 0.0489405 0)
(-0.267744 0.0461272 6.3475e-22)
(-0.283426 0.0426842 0)
(-0.297726 0.0389388 9.81072e-21)
(-0.310657 0.0348312 -9.53034e-21)
(-0.32201 0.0303247 6.38936e-22)
(-0.331576 0.0253823 -4.94074e-21)
(-0.339115 0.0199684 1.04236e-20)
(-0.344332 0.0140583 -8.94478e-21)
(-0.346967 0.00766059 5.0182e-21)
(-0.347028 0.000664059 4.27456e-21)
(-0.344292 -0.00706101 -7.75551e-21)
(-0.338474 -0.0155316 4.01103e-21)
(-0.329288 -0.0248259 2.08029e-21)
(-0.31644 -0.0350535 -1.64003e-21)
(-0.299736 -0.0462552 3.35578e-22)
(-0.279095 -0.0581245 2.68308e-22)
(-0.253546 -0.0699496 2.79947e-22)
(-0.219385 -0.081617 -2.81304e-22)
(-0.178589 -0.0932054 2.28668e-23)
(-0.152352 0.0698482 -6.42557e-22)
(-0.162407 0.0651927 -6.35866e-22)
(-0.1704 0.0600044 -6.5178e-22)
(-0.177219 0.0542018 0)
(-0.183024 0.0477835 -1.1638e-20)
(-0.187593 0.040718 9.08835e-21)
(-0.190731 0.0329482 0)
(-0.192206 0.0243984 -1.26286e-21)
(-0.191701 0.0149239 -6.06562e-22)
(-0.189127 0.00509209 8.13368e-21)
(-0.184598 -0.00580429 -4.85043e-22)
(-0.177784 -0.0176071 -9.99603e-21)
(-0.168511 -0.0303241 -5.15024e-22)
(-0.156732 -0.0440058 -4.45187e-22)
(-0.142409 -0.0587377 -4.18167e-22)
(-0.125527 -0.0746123 9.123e-22)
(-0.106228 -0.0915368 -8.45198e-22)
(-0.0849153 -0.108909 -9.64886e-22)
(-0.059947 -0.125426 -2.01049e-22)
(-0.0231475 -0.139387 1.83284e-23)
(-0.0271748 0.0742692 -2.02035e-20)
(-0.0286343 0.0697979 -5.84525e-23)
(-0.0267226 0.0637901 5.92477e-22)
(-0.0242586 0.0565045 2.11637e-20)
(-0.021129 0.0484056 1.99222e-21)
(-0.0172054 0.0394446 6.53582e-22)
(-0.012379 0.0295152 -1.95371e-20)
(-0.0066282 0.0185819 1.1325e-20)
(0.00126211 0.00688148 1.02688e-20)
(0.0105914 -0.00603178 -1.02787e-20)
(0.0207966 -0.0201208 4.67782e-22)
(0.032878 -0.0351241 1.09109e-20)
(0.0466851 -0.0510615 5.10742e-22)
(0.0621755 -0.06789 4.59071e-21)
(0.0792458 -0.0855567 -3.21087e-21)
(0.0977194 -0.104014 -2.65176e-21)
(0.117221 -0.123202 2.33385e-21)
(0.137428 -0.143052 0)
(0.157996 -0.16215 4.07471e-22)
(0.187574 -0.178396 3.30285e-23)
(0.119128 0.0623996 4.1376e-20)
(0.129243 0.0594934 -1.99958e-20)
(0.138823 0.0530821 2.13651e-20)
(0.150288 0.0450034 0)
(0.16265 0.035941 -1.33627e-21)
(0.175446 0.0258376 -2.14238e-20)
(0.188815 0.0146238 -1.08597e-21)
(0.203017 0.00226227 3.70555e-22)
(0.21785 -0.0112587 2.09165e-20)
(0.233345 -0.0264996 1.23994e-21)
(0.250069 -0.0427002 0)
(0.267848 -0.0599136 -1.12932e-21)
(0.286577 -0.0780527 0)
(0.306159 -0.096953 -9.64814e-22)
(0.326417 -0.116428 0)
(0.347168 -0.136267 0)
(0.367763 -0.156124 6.01968e-22)
(0.388682 -0.175962 -7.48298e-22)
(0.406301 -0.194263 6.62847e-22)
(0.433267 -0.213564 -1.89061e-22)
(0.298466 0.038913 0)
(0.317879 0.0366524 -1.34213e-21)
(0.333385 0.0301439 -4.3267e-20)
(0.351388 0.0217267 4.19114e-20)
(0.371096 0.0123018 -1.35606e-21)
(0.391422 0.00177929 0)
(0.412027 -0.0102625 -2.14165e-20)
(0.432726 -0.0238715 4.11618e-20)
(0.45383 -0.0389994 -2.23827e-20)
(0.475595 -0.0552478 -1.2696e-21)
(0.497885 -0.0726485 -1.22151e-21)
(0.520529 -0.0910936 -1.16015e-21)
(0.543439 -0.110392 0)
(0.566389 -0.130259 6.51433e-21)
(0.589123 -0.150408 -1.49801e-20)
(0.611529 -0.170502 6.58667e-21)
(0.632504 -0.189964 -6.21243e-22)
(0.653813 -0.208901 -4.62718e-22)
(0.669151 -0.224822 1.92704e-22)
(0.693682 -0.242989 -1.89952e-22)
(0.531475 0.00859044 4.14107e-20)
(0.555028 0.00679032 0)
(0.572868 2.78589e-06 -1.35229e-21)
(0.593405 -0.00869667 2.70583e-21)
(0.616667 -0.018298 2.70677e-21)
(0.640675 -0.0292281 1.34775e-21)
(0.664906 -0.0419083 1.33709e-21)
(0.689591 -0.0561459 -1.96875e-20)
(0.71468 -0.0717029 2.3555e-20)
(0.739963 -0.0885113 2.22903e-20)
(0.765328 -0.106481 -1.85304e-20)
(0.790437 -0.125346 2.28388e-21)
(0.815213 -0.144888 -8.19837e-21)
(0.839151 -0.164686 1.7591e-21)
(0.862124 -0.18444 9.1129e-21)
(0.883768 -0.203655 7.37811e-22)
(0.903175 -0.221708 -9.1026e-22)
(0.922 -0.238718 1.09938e-21)
(0.934611 -0.251943 1.73573e-21)
(0.953406 -0.266616 9.03782e-23)
(0.82479 -0.0187598 0)
(0.846156 -0.0205457 -4.35613e-20)
(0.862168 -0.0287326 4.47272e-20)
(0.880798 -0.0384029 -1.35444e-21)
(0.902792 -0.0485968 -2.68122e-21)
(0.926192 -0.0602318 -1.34652e-21)
(0.950215 -0.0734432 -2.64146e-21)
(0.974686 -0.0880434 0)
(0.999488 -0.1039 -1.28057e-21)
(1.02412 -0.120847 -1.23977e-21)
(1.04851 -0.138757 -1.16246e-21)
(1.07193 -0.157264 -2.2195e-21)
(1.09459 -0.176184 0)
(1.11531 -0.194939 0)
(1.13484 -0.213345 -8.43015e-22)
(1.15145 -0.230658 -6.57983e-21)
(1.16639 -0.246545 4.55607e-21)
(1.17807 -0.260656 -4.15206e-22)
(1.18667 -0.271226 -8.74981e-22)
(1.19468 -0.28141 2.51796e-22)
(1.1509 -0.0344101 4.24822e-20)
(1.16534 -0.0392353 0)
(1.17713 -0.0496935 0)
(1.19229 -0.060223 -4.24728e-20)
(1.21038 -0.0713395 1.35306e-21)
(1.22965 -0.0839977 8.3513e-20)
(1.24956 -0.0980041 -4.00671e-20)
(1.26961 -0.113031 0)
(1.28964 -0.129003 0)
(1.30882 -0.14573 0)
(1.3274 -0.163088 5.95965e-22)
(1.3441 -0.180652 1.59745e-21)
(1.35994 -0.198295 1.50337e-20)
(1.37259 -0.215347 -1.4498e-20)
(1.3846 -0.23178 5.81747e-21)
(1.39171 -0.246632 -5.09826e-21)
(1.39933 -0.260015 0)
(1.39978 -0.270871 2.12239e-22)
(1.40314 -0.279007 2.47511e-22)
(1.3966 -0.284706 0)
(1.45562 -0.0421149 -6.75817e-22)
(1.46975 -0.0520643 -4.27431e-20)
(1.48096 -0.0625879 4.22986e-20)
(1.4922 -0.0728258 0)
(1.50368 -0.0841326 4.07104e-20)
(1.5151 -0.096685 -8.02766e-20)
(1.52658 -0.110224 3.95767e-20)
(1.5375 -0.124632 0)
(1.548 -0.139896 1.83181e-20)
(1.55709 -0.155784 -3.56179e-20)
(1.56559 -0.172119 1.78523e-20)
(1.57167 -0.188459 -5.08814e-22)
(1.57733 -0.204637 0)
(1.57906 -0.220009 -1.2815e-20)
(1.58141 -0.234527 1.76114e-20)
(1.57748 -0.247274 -5.28674e-21)
(1.57693 -0.258488 -3.38189e-21)
(1.56599 -0.266909 2.38209e-21)
(1.56435 -0.273205 1.14181e-21)
(1.54453 -0.275875 0)
(1.74287 -0.0376121 0)
(1.73726 -0.0489989 0)
(1.73148 -0.0587973 0)
(1.72674 -0.0691788 0)
(1.72389 -0.0807712 0)
(1.72255 -0.0932373 0)
(1.7225 -0.106303 0)
(1.72253 -0.119842 0)
(1.72285 -0.133854 0)
(1.72205 -0.148189 0)
(1.72131 -0.162766 0)
(1.71827 -0.17726 0)
(1.71563 -0.191546 0)
(1.70903 -0.205155 0)
(1.70421 -0.218 0)
(1.6928 -0.229481 0)
(1.68656 -0.239585 0)
(1.66891 -0.247672 0)
(1.66371 -0.253634 0)
(1.63731 -0.25728 0)
(1.8407 -0.0300008 0)
(1.84323 -0.0417236 0)
(1.84134 -0.0527096 0)
(1.83741 -0.0643916 0)
(1.83383 -0.0769912 0)
(1.83083 -0.0901806 0)
(1.82835 -0.103708 0)
(1.82523 -0.117426 0)
(1.82191 -0.131318 0)
(1.81704 -0.145258 0)
(1.81211 -0.159174 0)
(1.80474 -0.172791 0)
(1.79796 -0.185992 0)
(1.78723 -0.198387 0)
(1.77875 -0.20989 0)
(1.76375 -0.220017 0)
(1.75468 -0.228763 0)
(1.73419 -0.235568 0)
(1.72722 -0.240502 0)
(1.69892 -0.243031 0)
(1.89906 -0.025381 0)
(1.90336 -0.0380678 0)
(1.90202 -0.0501972 0)
(1.89793 -0.0624582 0)
(1.89393 -0.0750733 0)
(1.89035 -0.0879452 0)
(1.8871 -0.100956 0)
(1.88291 -0.113992 0)
(1.87829 -0.127024 0)
(1.8719 -0.139939 0)
(1.86539 -0.152668 0)
(1.85637 -0.164994 0)
(1.84805 -0.176797 0)
(1.83584 -0.187792 0)
(1.82612 -0.197859 0)
(1.81002 -0.206685 0)
(1.80018 -0.214158 0)
(1.77909 -0.220002 0)
(1.77194 -0.224059 0)
(1.74358 -0.226267 0)
(1.93568 -0.0218579 0)
(1.94072 -0.0351501 0)
(1.93982 -0.0478739 0)
(1.93581 -0.0602039 0)
(1.93165 -0.0724212 0)
(1.92773 -0.0846472 0)
(1.92409 -0.0968917 0)
(1.91943 -0.109076 0)
(1.91429 -0.121154 0)
(1.90733 -0.13302 0)
(1.90028 -0.144607 0)
(1.89077 -0.15575 0)
(1.88207 -0.166334 0)
(1.8696 -0.176157 0)
(1.85975 -0.18507 0)
(1.84373 -0.192897 0)
(1.83404 -0.199434 0)
(1.81349 -0.204644 0)
(1.80661 -0.20815 0)
(1.77935 -0.210353 0)
(1.96232 -0.0198017 0)
(1.96766 -0.0330449 0)
(1.96737 -0.0457315 0)
(1.96378 -0.0577777 0)
(1.95972 -0.0694542 0)
(1.95571 -0.0809793 0)
(1.9519 -0.0924368 0)
(1.94706 -0.103774 0)
(1.94177 -0.114935 0)
(1.93468 -0.125822 0)
(1.92756 -0.136369 0)
(1.91804 -0.146452 0)
(1.90943 -0.155964 0)
(1.8972 -0.164763 0)
(1.88766 -0.172694 0)
(1.8722 -0.179666 0)
(1.86298 -0.185437 0)
(1.84336 -0.190106 0)
(1.83693 -0.193196 0)
(1.81108 -0.19531 0)
(1.98709 -0.0189619 0)
(1.99235 -0.0316195 0)
(1.99247 -0.0438402 0)
(1.98928 -0.0553929 0)
(1.98537 -0.0664636 0)
(1.98129 -0.0772743 0)
(1.97735 -0.0879413 0)
(1.9724 -0.0984361 0)
(1.96705 -0.108706 0)
(1.95996 -0.118661 0)
(1.9529 -0.12824 0)
(1.94352 -0.137348 0)
(1.93514 -0.145892 0)
(1.92326 -0.153769 0)
(1.91412 -0.160833 0)
(1.89926 -0.167047 0)
(1.89058 -0.172158 0)
(1.87185 -0.176344 0)
(1.86587 -0.179077 0)
(1.84134 -0.181068 0)
(2.01359 -0.0186738 0)
(2.01841 -0.0304819 0)
(2.01864 -0.0420246 0)
(2.01567 -0.0529648 0)
(2.01182 -0.0633863 0)
(2.00762 -0.0734749 0)
(2.0035 -0.0833563 0)
(1.99839 -0.0930232 0)
(1.99295 -0.102434 0)
(1.98582 -0.111509 0)
(1.9788 -0.120194 0)
(1.96952 -0.12841 0)
(1.96132 -0.136082 0)
(1.94971 -0.143132 0)
(1.94092 -0.14943 0)
(1.92654 -0.154969 0)
(1.9183 -0.159507 0)
(1.90029 -0.163252 0)
(1.89469 -0.165677 0)
(1.8712 -0.167518 0)
(2.04229 -0.0184959 0)
(2.0464 -0.0293881 0)
(2.0465 -0.0401558 0)
(2.04361 -0.0504034 0)
(2.03975 -0.0601349 0)
(2.03538 -0.069493 0)
(2.03103 -0.0786002 0)
(2.0257 -0.0874638 0)
(2.0201 -0.0960557 0)
(2.01286 -0.104304 0)
(2.0058 -0.112162 0)
(1.99652 -0.119564 0)
(1.98841 -0.126447 0)
(1.97696 -0.132753 0)
(1.9684 -0.138367 0)
(1.95434 -0.143301 0)
(1.94641 -0.147331 0)
(1.92891 -0.15067 0)
(1.92358 -0.152822 0)
(1.90084 -0.154493 0)
(2.07239 -0.0182642 0)
(2.07566 -0.0282316 0)
(2.0755 -0.0381651 0)
(2.07258 -0.0476574 0)
(2.06865 -0.0566608 0)
(2.06409 -0.0652787 0)
(2.05948 -0.0736227 0)
(2.05388 -0.0817077 0)
(2.04807 -0.0895163 0)
(2.04065 -0.0969842 0)
(2.03349 -0.104073 0)
(2.02414 -0.110723 0)
(2.01604 -0.116886 0)
(2.00463 -0.122513 0)
(1.99619 -0.127511 0)
(1.9823 -0.131894 0)
(1.97458 -0.135468 0)
(1.95738 -0.138432 0)
(1.95224 -0.140339 0)
(1.92999 -0.14183 0)
(2.10283 -0.0179051 0)
(2.10525 -0.0269387 0)
(2.10473 -0.0359987 0)
(2.10171 -0.0446914 0)
(2.09769 -0.052937 0)
(2.09292 -0.0608059 0)
(2.08805 -0.0683953 0)
(2.08215 -0.075722 0)
(2.07611 -0.0827766 0)
(2.06847 -0.0895016 0)
(2.06117 -0.0958656 0)
(2.05168 -0.101814 0)
(2.04353 -0.107311 0)
(2.03207 -0.112313 0)
(2.02368 -0.116748 0)
(2.00984 -0.120627 0)
(2.00224 -0.123787 0)
(1.9852 -0.126403 0)
(1.98019 -0.128086 0)
(1.95823 -0.129399 0)
(2.13271 -0.0173415 0)
(2.13428 -0.0254396 0)
(2.13337 -0.0336094 0)
(2.13021 -0.0414784 0)
(2.12606 -0.0489481 0)
(2.12107 -0.0560625 0)
(2.11594 -0.0629043 0)
(2.10975 -0.0694892 0)
(2.10346 -0.0758135 0)
(2.09559 -0.0818255 0)
(2.08811 -0.0875002 0)
(2.07846 -0.0927881 0)
(2.07021 -0.0976618 0)
(2.05865 -0.102084 0)
(2.05026 -0.105998 0)
(2.03639 -0.109412 0)
(2.02885 -0.112192 0)
(2.01185 -0.114484 0)
(2.00692 -0.115962 0)
(1.98512 -0.117102 0)
(2.16129 -0.0165144 0)
(2.16204 -0.0236905 0)
(2.16072 -0.0309702 0)
(2.15737 -0.0380065 0)
(2.15308 -0.0446912 0)
(2.14788 -0.0510487 0)
(2.14249 -0.0571489 0)
(2.13601 -0.0630057 0)
(2.12948 -0.068619 0)
(2.12137 -0.0739425 0)
(2.11371 -0.0789569 0)
(2.10387 -0.0836166 0)
(2.09552 -0.0879027 0)
(2.08382 -0.0917806 0)
(2.07538 -0.0952083 0)
(2.06143 -0.0981884 0)
(2.05391 -0.100616 0)
(2.03689 -0.102607 0)
(2.03201 -0.103895 0)
(2.01025 -0.104872 0)
(2.18796 -0.0154027 0)
(2.18793 -0.0216783 0)
(2.18619 -0.0280756 0)
(2.18264 -0.0342771 0)
(2.17821 -0.0401726 0)
(2.1728 -0.0457732 0)
(2.16717 -0.0511377 0)
(2.16043 -0.0562779 0)
(2.15366 -0.0611962 0)
(2.14531 -0.0658514 0)
(2.13748 -0.0702288 0)
(2.12745 -0.0742869 0)
(2.11897 -0.0780134 0)
(2.10712 -0.081376 0)
(2.09862 -0.0843453 0)
(2.08456 -0.0869185 0)
(2.07703 -0.0890156 0)
(2.05994 -0.0907253 0)
(2.05508 -0.0918353 0)
(2.0333 -0.0926611 0)
(2.21224 -0.0140112 0)
(2.2115 -0.0194084 0)
(2.20936 -0.0249322 0)
(2.20561 -0.0303 0)
(2.20103 -0.0354055 0)
(2.19543 -0.040251 0)
(2.18958 -0.0448856 0)
(2.18258 -0.0493194 0)
(2.1756 -0.0535561 0)
(2.16703 -0.0575596 0)
(2.15903 -0.061319 0)
(2.14881 -0.0647968 0)
(2.14021 -0.0679863 0)
(2.12819 -0.0708571 0)
(2.11962 -0.0733905 0)
(2.10543 -0.0755786 0)
(2.09789 -0.0773632 0)
(2.0807 -0.0788087 0)
(2.07584 -0.0797512 0)
(2.054 -0.0804366 0)
(2.23375 -0.012356 0)
(2.23238 -0.0168946 0)
(2.22987 -0.0215546 0)
(2.22593 -0.0260916 0)
(2.22121 -0.0304085 0)
(2.21544 -0.0345019 0)
(2.20939 -0.0384125 0)
(2.20217 -0.0421487 0)
(2.19498 -0.0457151 0)
(2.18621 -0.0490805 0)
(2.17806 -0.0522371 0)
(2.16766 -0.0551521 0)
(2.15894 -0.0578224 0)
(2.14677 -0.0602207 0)
(2.13813 -0.0623359 0)
(2.1238 -0.0641571 0)
(2.11623 -0.0656437 0)
(2.09892 -0.0668397 0)
(2.09407 -0.0676233 0)
(2.07213 -0.0681793 0)
(2.25221 -0.0104614 0)
(2.2503 -0.0141584 0)
(2.24747 -0.0179633 0)
(2.24335 -0.0216729 0)
(2.23851 -0.0252029 0)
(2.23258 -0.0285477 0)
(2.22636 -0.0317399 0)
(2.21894 -0.0347864 0)
(2.21158 -0.0376918 0)
(2.20262 -0.0404304 0)
(2.19433 -0.0429965 0)
(2.18377 -0.0453626 0)
(2.17494 -0.0475281 0)
(2.16263 -0.0494693 0)
(2.15391 -0.0511807 0)
(2.13946 -0.0526498 0)
(2.13184 -0.0538501 0)
(2.11442 -0.0548094 0)
(2.10956 -0.0554409 0)
(2.08752 -0.0558779 0)
(2.26741 -0.0083675 0)
(2.26505 -0.0112363 0)
(2.26195 -0.0141918 0)
(2.25768 -0.0170751 0)
(2.25272 -0.0198183 0)
(2.24665 -0.0224162 0)
(2.24028 -0.0248935 0)
(2.23269 -0.0272564 0)
(2.22518 -0.0295078 0)
(2.21607 -0.0316286 0)
(2.20764 -0.0336136 0)
(2.19694 -0.0354423 0)
(2.18802 -0.037114 0)
(2.17558 -0.0386108 0)
(2.16679 -0.0399292 0)
(2.15222 -0.0410589 0)
(2.14456 -0.0419819 0)
(2.12704 -0.0427156 0)
(2.12216 -0.0432003 0)
(2.10002 -0.043528 0)
(2.27915 -0.00612342 0)
(2.27644 -0.00817539 0)
(2.27311 -0.0102855 0)
(2.26871 -0.0123416 0)
(2.26366 -0.0142957 0)
(2.25747 -0.0161459 0)
(2.25097 -0.017909 0)
(2.24324 -0.0195913 0)
(2.23561 -0.0211926 0)
(2.22636 -0.0227017 0)
(2.21784 -0.0241116 0)
(2.20702 -0.0254116 0)
(2.19801 -0.0265967 0)
(2.18547 -0.0276597 0)
(2.17661 -0.0285922 0)
(2.16195 -0.0293937 0)
(2.15425 -0.0300446 0)
(2.13663 -0.0305637 0)
(2.13174 -0.0309039 0)
(2.10952 -0.0311319 0)
(2.28717 -0.00367402 0)
(2.28423 -0.00493604 0)
(2.28075 -0.00621846 0)
(2.27625 -0.00745964 0)
(2.27112 -0.00863332 0)
(2.26485 -0.00974345 0)
(2.25826 -0.0107986 0)
(2.25042 -0.0118071 0)
(2.24269 -0.0127639 0)
(2.23335 -0.0136689 0)
(2.22475 -0.0145093 0)
(2.21385 -0.0152895 0)
(2.20477 -0.015993 0)
(2.19215 -0.0166327 0)
(2.18325 -0.0171828 0)
(2.16851 -0.0176679 0)
(2.16079 -0.0180474 0)
(2.1431 -0.0183649 0)
(2.1382 -0.0185589 0)
(2.11591 -0.0186983 0)
(2.29121 -0.00105838 0)
(2.28816 -0.00152768 0)
(2.28462 -0.00198946 0)
(2.28008 -0.00242756 0)
(2.27491 -0.0028357 0)
(2.26859 -0.00321852 0)
(2.26195 -0.00357893 0)
(2.25406 -0.0039225 0)
(2.24628 -0.00424575 0)
(2.23689 -0.00455209 0)
(2.22825 -0.00483359 0)
(2.2173 -0.0050971 0)
(2.20819 -0.00533078 0)
(2.19553 -0.00554736 0)
(2.1866 -0.00572804 0)
(2.17183 -0.00589377 0)
(2.16408 -0.00601602 0)
(2.14636 -0.00612654 0)
(2.14145 -0.00618672 0)
(2.11912 -0.00623628 0)
(1.90416 0.15816 -2.51109e-22)
(1.92284 0.138798 0)
(1.93427 0.118783 2.60754e-22)
(1.94091 0.0983098 8.4071e-21)
(1.93941 0.0776006 -2.50526e-20)
(1.93619 0.0577277 0)
(1.92402 0.0371033 -3.14112e-20)
(1.90034 0.0198061 0)
(1.89088 -0.00139249 -3.72698e-20)
(1.74924 -0.0238956 5.85133e-22)
(1.92355 0.143079 -1.68588e-22)
(1.94038 0.126434 -1.23389e-22)
(1.95112 0.1088 1.2364e-22)
(1.9559 0.0919285 -1.81353e-21)
(1.95748 0.0734073 8.28821e-21)
(1.94783 0.0572685 6.78358e-22)
(1.95243 0.0386557 0)
(1.91061 0.0225802 2.80739e-20)
(1.94337 0.00766276 0)
(1.8361 -0.0162781 3.37987e-20)
(1.94814 0.127943 5.14369e-22)
(1.96087 0.1135 0)
(1.97288 0.0974879 1.50513e-22)
(1.97149 0.0828456 -1.86109e-21)
(1.97996 0.0664547 -8.9764e-21)
(1.95889 0.0517748 0)
(1.97738 0.0369852 -2.04854e-20)
(1.92614 0.019865 -2.87147e-20)
(1.96137 0.00954408 0)
(1.8917 -0.011622 -3.34549e-20)
(1.97554 0.114625 -3.15835e-22)
(1.98367 0.101596 5.50391e-22)
(1.9983 0.0875689 0)
(1.99049 0.0739768 -5.21013e-21)
(2.0044 0.0604087 -4.57927e-22)
(1.9768 0.0456369 1.02175e-21)
(1.99731 0.034402 1.99819e-20)
(1.95124 0.0171518 6.60866e-22)
(1.97247 0.00822833 2.34674e-20)
(1.92717 -0.00859919 0)
(2.00394 0.102718 0)
(2.00873 0.0906743 -5.65975e-22)
(2.02478 0.0789392 6.16419e-23)
(2.0141 0.065898 -3.02901e-22)
(2.02853 0.0550253 2.46068e-22)
(2.00211 0.0405075 4.68065e-22)
(2.01625 0.0312446 1.4039e-20)
(1.98056 0.0157872 1.20714e-21)
(1.98924 0.00657805 -3.48469e-21)
(1.95401 -0.00703446 -2.31278e-20)
(2.03219 0.0919327 7.7772e-22)
(2.03573 0.0807346 5.59028e-23)
(2.05086 0.0709419 -6.33461e-22)
(2.04111 0.0586421 -1.70265e-23)
(2.05242 0.0494981 2.9556e-21)
(2.03111 0.0362164 0)
(2.03798 0.0275263 -1.55086e-20)
(2.01003 0.0145035 4.73284e-22)
(2.01231 0.00481059 -3.79064e-20)
(1.97946 -0.00686766 4.29793e-20)
(2.05989 0.0819994 -7.81546e-22)
(2.06364 0.0717742 -1.13814e-21)
(2.07652 0.0632888 5.74133e-22)
(2.06932 0.0521467 -1.55077e-22)
(2.07701 0.0438258 -1.08006e-21)
(2.06048 0.0322682 3.52664e-21)
(2.06306 0.0236197 -3.91898e-22)
(2.03894 0.012573 8.61399e-22)
(2.0392 0.00289455 1.7004e-20)
(2.00682 -0.00749758 -1.98831e-20)
(2.08696 0.0727945 0)
(2.09136 0.0636849 2.6354e-21)
(2.10202 0.0560304 -1.73774e-22)
(2.0971 0.0462494 -4.305e-22)
(2.10247 0.0383716 -1.06614e-21)
(2.08895 0.0284301 -5.71161e-21)
(2.09008 0.0199675 3.59769e-21)
(2.06784 0.0103065 0)
(2.06798 0.00116051 0)
(2.03655 -0.00828097 0)
(2.11332 0.0643002 0)
(2.11811 0.0563139 -2.80749e-21)
(2.12725 0.0492963 -1.49923e-22)
(2.12377 0.0407994 5.50688e-22)
(2.12817 0.033383 -7.29047e-22)
(2.1164 0.0247293 2.57708e-21)
(2.1175 0.0167751 -4.2254e-21)
(2.09687 0.00813373 2.44869e-22)
(2.0973 -0.000252446 0)
(2.06774 -0.00895225 -6.17508e-21)
(2.13865 0.056505 1.24543e-22)
(2.14352 0.0495371 1.64049e-21)
(2.15175 0.0431415 2.16518e-21)
(2.14913 0.0357306 9.62264e-24)
(2.1533 0.0289103 9.8853e-23)
(2.14287 0.0212624 5.98127e-22)
(2.14428 0.0140126 -2.14368e-21)
(2.12559 0.00619056 1.8245e-22)
(2.12616 -0.00141769 0)
(2.09926 -0.00946708 1.1238e-20)
(2.16259 0.0493649 0)
(2.16738 0.0432803 1.9451e-21)
(2.17503 0.0375409 3.53877e-22)
(2.17308 0.031035 0)
(2.17719 0.0249034 0)
(2.16816 0.0180864 -4.49322e-22)
(2.16977 0.0115902 1.80793e-21)
(2.15335 0.00448601 1.98025e-22)
(2.15388 -0.00236542 -6.53818e-23)
(2.13015 -0.0097782 -5.20134e-21)
(2.18479 0.0428097 0)
(2.18951 0.0374979 -3.83327e-21)
(2.19668 0.0324332 -3.20152e-21)
(2.19543 0.0267129 3.52471e-22)
(2.19944 0.0212966 -1.95147e-22)
(2.19194 0.0152206 -1.89729e-24)
(2.19358 0.00946795 -7.58114e-23)
(2.17962 0.0030483 -1.24481e-21)
(2.17998 -0.00305157 -2.46874e-22)
(2.15967 -0.00981686 1.01231e-22)
(2.20497 0.036759 0)
(2.20971 0.0321472 2.10984e-21)
(2.21642 0.027751 -1.76397e-22)
(2.21594 0.0227502 1.74939e-22)
(2.21976 0.0180391 0)
(2.21386 0.0126676 0)
(2.2154 0.00764076 0)
(2.20395 0.00190763 1.46078e-21)
(2.20409 -0.00344656 -1.75446e-21)
(2.18722 -0.00954668 0)
(2.22294 0.0311306 0)
(2.22777 0.0271768 1.43601e-21)
(2.23404 0.0234296 1.58535e-21)
(2.23437 0.0191164 1.63747e-21)
(2.23796 0.0150891 -2.70721e-22)
(2.23364 0.0104137 1.03437e-21)
(2.23502 0.00609482 -3.83555e-22)
(2.226 0.00106073 0)
(2.22587 -0.00356222 5.17785e-22)
(2.21228 -0.00897049 2.06709e-21)
(2.23855 0.0258431 -3.77534e-22)
(2.24355 0.0225258 -1.18506e-21)
(2.24941 0.0194055 -2.05655e-21)
(2.25054 0.0157672 -1.16049e-21)
(2.25388 0.0124026 0)
(2.25105 0.00842638 -1.2328e-21)
(2.25225 0.00479737 6.16305e-22)
(2.24546 0.00047841 -3.78615e-23)
(2.24507 -0.00342851 8.21393e-22)
(2.23449 -0.0081095 -2.7378e-21)
(2.25176 0.0208169 3.79473e-22)
(2.25696 0.0181285 -9.92509e-22)
(2.26246 0.0156167 7.38702e-22)
(2.26432 0.0126501 -1.56948e-21)
(2.26744 0.00992996 0)
(2.26593 0.00666061 0)
(2.26696 0.0037056 6.62874e-23)
(2.26212 0.000121848 -4.00072e-22)
(2.26149 -0.00307943 3.34411e-22)
(2.25354 -0.00699284 7.3992e-22)
(2.26259 0.0159838 0)
(2.26796 0.013924 1.57603e-21)
(2.27317 0.0120078 -4.91058e-22)
(2.27565 0.00971451 1.45035e-21)
(2.27858 0.00762343 3.47443e-22)
(2.27817 0.00506871 -1.64856e-22)
(2.27904 0.00277401 2.49556e-22)
(2.27584 -5.41851e-05 2.46598e-22)
(2.275 -0.00255779 0)
(2.26922 -0.00566479 0)
(2.27103 0.0113146 0)
(2.27651 0.00988535 6.70008e-22)
(2.28148 0.00855714 -1.06119e-21)
(2.28443 0.00693969 0)
(2.2872 0.00546457 -6.40059e-22)
(2.28764 0.00362851 -1.81786e-22)
(2.28838 0.0019806 -4.03624e-22)
(2.28644 -8.08394e-05 -4.04047e-23)
(2.28543 -0.0018973 4.62674e-23)
(2.28134 -0.00417675 -6.87395e-24)
(2.27695 0.00680373 0)
(2.28248 0.00599682 -6.73222e-22)
(2.28725 0.00526284 -5.23134e-22)
(2.29051 0.00434003 6.25865e-22)
(2.29315 0.00348895 2.65906e-22)
(2.29415 0.00239114 2.35455e-22)
(2.29479 0.00139308 6.9683e-22)
(2.29371 0.000116399 -3.34491e-22)
(2.29257 -0.00101937 5.04972e-23)
(2.28964 -0.00245762 0)
(2.28002 0.00214863 0)
(2.28556 0.00199657 3.13903e-22)
(2.29023 0.0018692 -2.8383e-22)
(2.29362 0.00165988 2.48137e-22)
(2.29618 0.00144998 0)
(2.29747 0.00112705 -2.36629e-22)
(2.29804 0.000810172 1.24303e-22)
(2.29738 0.000370443 4.8268e-23)
(2.29616 -4.5452e-05 0)
(2.29381 -0.000585554 0)
(1.29681 0.317374 0)
(1.25356 0.347437 -4.88219e-20)
(1.22017 0.386506 0)
(1.19343 0.435994 -1.60993e-19)
(1.16986 0.495271 6.35393e-20)
(1.14765 0.566597 3.03984e-21)
(1.12524 0.651949 4.52829e-20)
(1.0848 0.742015 -1.07103e-20)
(0.949964 0.770728 0)
(0.552994 0.492136 3.3899e-20)
(1.37637 0.319338 8.73543e-20)
(1.33621 0.357438 4.882e-20)
(1.3078 0.395312 -4.37218e-20)
(1.28537 0.4431 5.43802e-20)
(1.26641 0.501719 -4.02246e-20)
(1.25054 0.57236 1.04931e-20)
(1.23609 0.656271 -4.86406e-20)
(1.20211 0.742555 -8.89828e-20)
(1.06105 0.763374 -2.35107e-20)
(0.615655 0.476324 -4.81081e-20)
(1.45266 0.315867 -3.6189e-20)
(1.41903 0.356161 3.69496e-20)
(1.39511 0.393397 4.37198e-20)
(1.37576 0.440299 4.38052e-20)
(1.36075 0.498169 4.33353e-20)
(1.35091 0.567347 4.1847e-20)
(1.34376 0.648248 1.226e-20)
(1.31439 0.727978 3.23849e-20)
(1.16381 0.738369 4.39373e-21)
(0.668071 0.446774 -4.69022e-21)
(1.5289 0.309368 7.24006e-20)
(1.50054 0.349282 -3.69476e-20)
(1.47983 0.385031 0)
(1.46294 0.430141 0)
(1.4515 0.485979 0)
(1.44713 0.552294 2.24321e-20)
(1.44598 0.628437 -1.20063e-20)
(1.41826 0.699005 0)
(1.2537 0.696387 -4.12015e-21)
(0.705033 0.404144 1.15318e-20)
(1.60197 0.299336 -1.04774e-20)
(1.57756 0.33739 4.38729e-20)
(1.55946 0.371224 0)
(1.54501 0.413827 0)
(1.53699 0.466377 8.07887e-21)
(1.53736 0.528425 5.44227e-21)
(1.54044 0.598271 1.28807e-20)