/*--------------------------------*- C++ -*----------------------------------*\
| =========                 |                                                 |
| \\      /  F ield         | OpenFOAM: The Open Source CFD Toolbox           |
|  \\    /   O peration     | Version:  4.1                                   |
|   \\  /    A nd           | Web:      www.OpenFOAM.org                      |
|    \\/     M anipulation  |                                                 |
\*---------------------------------------------------------------------------*/
FoamFile
{
    version     2.0;
    format      ascii;
    class       volVectorField;
    location    "5";
    object      U;
}
// * * * * * * * * * * * * * * * * * * * * * * * * * * * * * * * * * * * * * //

dimensions      [0 1 -1 0 0 0 0];

internalField   nonuniform List<vector> 
3800
(
(-0.0341089 0.0185386 2.81558e-19)
(-0.0682203 0.0514834 0)
(-0.0495904 0.0723344 4.91888e-19)
(0.0248137 0.079341 2.25224e-19)
(0.159757 0.079297 -4.25186e-19)
(0.352532 0.0778291 -6.06595e-19)
(0.588005 0.0889217 1.91209e-19)
(0.808481 0.0866399 0)
(1.0851 0.114056 -1.79677e-19)
(1.22692 0.0911078 0)
(-0.0467124 0.0207003 -1.40966e-19)
(-0.0723521 0.0338987 1.32441e-19)
(-0.022163 0.0364599 -5.02074e-19)
(0.119457 0.0383404 -6.89516e-19)
(0.347848 0.0478787 -1.75447e-21)
(0.628305 0.0664621 2.01291e-19)
(0.900981 0.0918003 -1.8797e-19)
(1.15588 0.111068 -1.80506e-19)
(1.35466 0.134576 1.79583e-19)
(1.46067 0.127707 3.41155e-19)
(-0.0572341 0.0249805 1.42664e-19)
(-0.0569876 0.0271507 -1.37775e-19)
(0.0608386 0.0215198 2.50354e-19)
(0.309239 0.0312879 -3.74034e-21)
(0.632908 0.0596523 2.13999e-19)
(0.949343 0.0949745 2.00638e-19)
(1.21055 0.128549 1.89733e-19)
(1.40223 0.148877 1.80437e-19)
(1.50361 0.163716 1.64445e-19)
(1.58857 0.157052 -1.55905e-19)
(-0.0618604 0.0258651 -7.63161e-22)
(-0.0155523 0.0195214 -1.40765e-19)
(0.20934 0.0195885 0)
(0.573828 0.0526099 2.29825e-19)
(0.940668 0.099303 -2.19605e-19)
(1.2272 0.140607 0)
(1.41647 0.168271 0)
(1.51482 0.178722 0)
(1.56864 0.183117 -1.64476e-19)
(1.57579 0.171327 3.09762e-19)
(-0.0585493 0.0212799 3.03545e-19)
(0.0627243 0.00752691 8.15033e-22)
(0.428278 0.034944 1.32756e-19)
(0.861932 0.0956455 1.17133e-19)
(1.19876 0.149721 1.09389e-19)
(1.40783 0.18401 9.90702e-20)
(1.5124 0.198767 0)
(1.55972 0.200418 8.22816e-20)
(1.56639 0.197147 -3.80731e-19)
(1.56527 0.183327 5.0959e-19)
(-0.0443324 0.0115541 -4.65088e-19)
(0.194715 0.00160958 3.93396e-21)
(0.688234 0.073805 -2.64792e-19)
(1.11215 0.150137 2.4447e-19)
(1.37308 0.198023 -3.23327e-19)
(1.5019 0.219474 1.02686e-19)
(1.55435 0.223963 0)
(1.56383 0.219745 -8.23101e-20)
(1.55933 0.210908 7.56008e-20)
(1.55205 0.198897 2.66036e-19)
(-0.0126579 -0.000478312 0)
(0.388092 0.0212812 0)
(0.933981 0.13023 -1.34301e-19)
(1.29504 0.205539 1.25811e-19)
(1.47624 0.240824 -1.05727e-19)
(1.54755 0.250892 9.97225e-20)
(1.56216 0.247742 1.68386e-19)
(1.55593 0.23854 -1.59705e-19)
(1.542 0.226538 -1.38126e-19)
(1.52456 0.214268 6.5379e-20)
(0.0447757 -0.00891225 8.73747e-20)
(0.611784 0.0723806 0)
(1.13408 0.194335 -6.51911e-20)
(1.41677 0.258465 2.45869e-19)
(1.53165 0.280397 -1.64588e-19)
(1.56015 0.280577 0)
(1.55505 0.271253 0)
(1.53851 0.258344 0)
(1.52014 0.243523 -1.30147e-19)
(1.50562 0.232115 1.24085e-19)
(0.13197 -0.00443001 -4.38852e-20)
(0.818492 0.143013 -5.2785e-22)
(1.28334 0.261458 -7.06174e-20)
(1.49057 0.309324 3.02023e-20)
(1.55314 0.317912 2.85083e-20)
(1.55559 0.309866 4.74657e-20)
(1.53825 0.295748 0)
(1.51751 0.279313 -1.69626e-20)
(1.49827 0.263032 -7.57744e-20)
(1.47905 0.25073 5.78769e-20)
(0.245171 0.0195797 0)
(0.987925 0.22149 -4.14246e-20)
(1.38563 0.32894 0)
(1.52808 0.358593 -1.59956e-20)
(1.55361 0.354798 -1.49931e-20)
(1.53909 0.339691 -2.27771e-20)
(1.51602 0.321057 0)
(1.49311 0.301617 1.69693e-20)
(1.47195 0.283629 1.5054e-20)
(1.4543 0.269442 1.25154e-20)
(-0.0469614 0.0392428 0)
(-0.156737 0.0542517 -2.93872e-20)
(-0.278448 0.0531626 0)
(-0.379854 0.0505812 -4.36351e-20)
(-0.469106 0.0478651 -1.51944e-20)
(-0.547215 0.0448082 3.00628e-20)
(-0.615505 0.0413986 -2.84081e-20)
(-0.674991 0.0377035 2.98278e-20)
(-0.725708 0.0338514 -3.82642e-22)
(-0.766358 0.0299831 3.06321e-20)
(-0.0487579 0.111622 -8.99007e-20)
(-0.148632 0.157301 5.76765e-20)
(-0.256655 0.155503 -5.87991e-20)
(-0.344785 0.14819 2.84859e-20)
(-0.420238 0.140276 1.47969e-19)
(-0.483964 0.131369 -5.67593e-20)
(-0.537237 0.121465 0)
(-0.581183 0.110789 -2.95852e-20)
(-0.615947 0.0997391 -2.96465e-20)
(-0.640113 0.0885664 0)
(-0.051328 0.166247 6.0106e-20)
(-0.134274 0.244112 0)
(-0.218491 0.245909 1.82328e-19)
(-0.283981 0.235401 -2.39245e-19)
(-0.336476 0.223057 5.70354e-20)
(-0.376866 0.209067 0)
(-0.406259 0.193524 0)
(-0.425892 0.17683 0)
(-0.436466 0.159603 2.50171e-19)
(-0.437503 0.142035 -2.47105e-19)
(-0.0527469 0.194711 0)
(-0.115947 0.305386 -1.30788e-19)
(-0.171175 0.317277 2.50258e-19)
(-0.209231 0.306532 -1.20038e-19)
(-0.234662 0.291034 1.27129e-19)
(-0.248222 0.272887 -3.74731e-19)
(-0.251008 0.252683 -1.41532e-20)
(-0.244297 0.231041 2.41957e-19)
(-0.22912 0.208589 2.53676e-19)
(-0.207918 0.185284 -3.72154e-19)
(-0.0512262 0.193808 1.34797e-19)
(-0.0960079 0.334355 -2.66056e-19)
(-0.121697 0.363951 2.38603e-21)
(-0.130928 0.357537 2.95245e-21)
(-0.128357 0.340717 1.32401e-19)
(-0.114843 0.319886 -3.65756e-19)
(-0.0912639 0.29693 0)
(-0.059425 0.272636 -1.22734e-19)
(-0.0202883 0.248251 1.22116e-19)
(0.0279358 0.222279 -5.01606e-19)
(-0.0459272 0.166914 -2.05252e-21)
(-0.0767778 0.326989 2.69116e-19)
(-0.0768003 0.379746 1.28513e-19)
(-0.0592326 0.383661 1.23548e-19)
(-0.0298883 0.368672 1.24235e-19)
(0.00953619 0.346667 1.23539e-19)
(0.057474 0.322152 0)
(0.114253 0.296195 1.22639e-19)
(0.167781 0.270115 3.69142e-19)
(0.251432 0.249525 -1.13796e-19)
(-0.0378284 0.124348 4.228e-22)
(-0.0611183 0.284332 1.36369e-19)
(-0.0433637 0.357988 0)
(-0.0044254 0.376646 -2.57019e-19)
(0.0474346 0.368081 2.36287e-19)
(0.109793 0.347545 0)
(0.175332 0.322366 0)
(0.257859 0.295034 0)
(0.313804 0.266712 -2.22583e-19)
(0.428199 0.243588 -4.68658e-19)
(-0.0293346 0.0800971 -1.41232e-19)
(-0.0512021 0.217753 1.36356e-19)
(-0.0263142 0.299183 2.51238e-19)
(0.0246582 0.329017 -6.98844e-21)
(0.0906703 0.327617 2.25547e-19)
(0.169685 0.310215 2.18106e-19)
(0.243981 0.286242 2.13557e-19)
(0.350844 0.257162 2.103e-19)
(0.402579 0.234113 2.22523e-19)
(0.559415 0.203039 -2.16385e-19)
(-0.0239425 0.045391 -4.22893e-19)
(-0.048908 0.146697 -1.32595e-19)
(-0.0267212 0.217511 -4.9772e-19)
(0.0258774 0.247079 -2.3368e-19)
(0.097418 0.247878 -8.22791e-21)
(0.186137 0.232801 -2.25441e-19)
(0.276148 0.212914 1.92937e-19)
(0.416571 0.187321 -2.10293e-19)
(0.486182 0.173168 1.97997e-19)
(0.732876 0.143821 -4.03946e-19)
(-0.0252382 0.0251174 2.82303e-19)
(-0.05603 0.088625 0)
(-0.0407218 0.135458 2.4821e-19)
(0.0112276 0.154381 2.64816e-21)
(0.0947371 0.153441 -3.01117e-21)
(0.211904 0.141516 2.05626e-19)
(0.362041 0.133075 -5.93992e-19)
(0.545674 0.116729 0)
(0.713882 0.118572 -1.97919e-19)
(1.00245 0.104947 0)
(-0.808234 0.02477 0)
(-0.853403 0.0135254 0)
(-0.872437 0.00744006 0)
(-0.883059 -0.000424208 1.20398e-21)
(-0.87627 -0.00544794 0)
(-0.863693 -0.0115275 0)
(-0.837494 -0.016322 -1.64834e-20)
(-0.803334 -0.0225127 1.39728e-21)
(-0.754786 -0.0288637 2.60967e-21)
(-0.693504 -0.0366106 1.99185e-21)
(-0.615148 -0.0446448 1.14619e-20)
(-0.521291 -0.0523755 5.22819e-22)
(-0.412151 -0.058478 3.73367e-22)
(-0.29195 -0.0621752 0)
(-0.165937 -0.0623008 0)
(-0.0402558 -0.0596369 0)
(0.0800618 -0.0545482 1.62053e-21)
(0.191425 -0.0485509 -1.62246e-21)
(0.29197 -0.0423885 0)
(0.380885 -0.0366218 0)
(0.458316 -0.0314458 0)
(0.525057 -0.026879 -2.45062e-21)
(0.582261 -0.0229177 2.45354e-21)
(0.631165 -0.0195306 2.22266e-21)
(0.672942 -0.0166583 -1.96727e-21)
(0.708649 -0.0142318 -1.10795e-22)
(0.73921 -0.0121872 -1.51133e-21)
(0.765429 -0.0104698 1.51313e-21)
(0.787997 -0.00903344 -1.18509e-21)
(0.807512 -0.00783829 1.18651e-21)
(0.824489 -0.00684979 0)
(0.839371 -0.00603744 8.06535e-22)
(0.852533 -0.005374 -8.07502e-22)
(0.864296 -0.00483487 6.20174e-22)
(0.874924 -0.00439782 -6.20919e-22)
(0.884634 -0.0040428 0)
(0.893597 -0.00375197 4.17754e-22)
(0.901946 -0.0035097 -4.18258e-22)
(0.909781 -0.0033026 0)
(0.917171 -0.0031196 0)
(0.924163 -0.00295189 0)
(0.930785 -0.00279285 0)
(0.937053 -0.00263783 1.27271e-23)
(0.942972 -0.00248398 -1.12099e-23)
(0.948543 -0.00232988 9.87719e-24)
(0.953765 -0.00217528 0)
(0.958635 -0.00202065 0)
(0.963155 -0.00186695 0)
(0.967327 -0.00171541 -4.50161e-23)
(0.971156 -0.00156717 5.47018e-24)
(0.974651 -0.00142356 3.96492e-23)
(0.977822 -0.00128547 0)
(0.980682 -0.00115383 0)
(0.983246 -0.00102953 0)
(0.98553 -0.000912792 0)
(0.987553 -0.000804421 1.80878e-23)
(0.989331 -0.000704635 -1.811e-23)
(0.990882 -0.000612928 0)
(0.992232 -0.000529449 0)
(0.993402 -0.000454892 0)
(0.994407 -0.000388916 -4.58553e-24)
(0.995267 -0.000330908 4.5912e-24)
(0.995998 -0.000280357 0)
(0.996617 -0.000236676 -3.00851e-24)
(0.99714 -0.000199257 5.62042e-24)
(0.997581 -0.000167408 -3.54156e-25)
(0.997952 -0.00014052 -2.26007e-24)
(0.998264 -0.000117891 0)
(0.998525 -9.90016e-05 0)
(0.998747 -8.31957e-05 0)
(0.998931 -7.01464e-05 5.22625e-25)
(0.99909 -5.91997e-05 -8.28517e-26)
(0.99922 -5.02988e-05 -4.40979e-25)
(0.999338 -4.26845e-05 -3.01648e-25)
(0.999428 -3.67169e-05 3.02026e-25)
(0.99952 -3.12862e-05 -9.39691e-26)
(0.999579 -2.74798e-05 9.40875e-26)
(0.999659 -2.33281e-05 -2.24941e-26)
(0.999689 -2.1335e-05 1.68538e-26)
(0.999771 -1.75943e-05 5.07816e-27)
(-0.658263 0.0726569 7.44659e-20)
(-0.704563 0.0381989 -7.78937e-20)
(-0.710478 0.0199345 -2.46025e-21)
(-0.71811 -0.00255046 -3.65063e-21)
(-0.706353 -0.017088 -2.40006e-21)
(-0.691494 -0.0334822 -2.31943e-21)
(-0.664523 -0.047203 -6.9502e-20)
(-0.63086 -0.0639575 6.52958e-20)
(-0.585293 -0.0823842 -2.80323e-21)
(-0.52781 -0.104452 -1.68075e-21)
(-0.455139 -0.128693 -4.05756e-20)
(-0.367767 -0.152207 3.86666e-20)
(-0.26687 -0.171338 -3.72461e-22)
(-0.154558 -0.183771 0)
(-0.0373011 -0.18304 0)
(0.0793348 -0.174437 0)
(0.189721 -0.159982 0)
(0.290326 -0.14238 0)
(0.380368 -0.12405 -9.40081e-21)
(0.45948 -0.106752 9.41131e-21)
(0.528152 -0.0913366 9.56773e-21)
(0.587219 -0.0778885 -4.23945e-22)
(0.637713 -0.066286 -9.46328e-21)
(0.68076 -0.056379 -8.51e-21)
(0.717433 -0.047987 4.32091e-21)
(0.748684 -0.0409102 3.79772e-21)
(0.775339 -0.0349579 -2.95763e-21)
(0.798108 -0.0299656 5.58823e-21)
(0.81761 -0.025795 -4.95468e-21)
(0.834379 -0.0223291 2.32702e-21)
(0.848881 -0.0194672 0)
(0.861516 -0.0171208 -1.68831e-21)
(0.87263 -0.0152104 1.58608e-21)
(0.882514 -0.0136642 0)
(0.891412 -0.012417 0)
(0.899524 -0.0114102 8.74365e-22)
(0.907009 -0.0105913 -1.16408e-22)
(0.913988 -0.00991445 -8.68749e-22)
(0.920554 -0.00934028 -4.15109e-23)
(0.926769 -0.00883606 -3.64574e-23)
(0.932677 -0.00837573 0)
(0.938301 -0.00793962 -2.81893e-23)
(0.943653 -0.00751398 -3.74787e-23)
(0.948736 -0.00709026 -3.43899e-22)
(0.953547 -0.00666421 3.01499e-23)
(0.958083 -0.00623483 2.76952e-22)
(0.962338 -0.0058035 -2.42911e-22)
(0.96631 -0.00537294 2.15031e-22)
(0.969997 -0.00494671 0)
(0.9734 -0.00452836 0)
(0.976524 -0.00412143 -8.98482e-24)
(0.979375 -0.00372906 0)
(0.981961 -0.00335369 -6.93587e-24)
(0.984292 -0.00299799 -5.23294e-23)
(0.98638 -0.00266325 4.09566e-23)
(0.988239 -0.00235093 4.67801e-24)
(0.989882 -0.00206265 2.70061e-23)
(0.991324 -0.00179769 -7.52442e-24)
(0.992583 -0.00155533 -3.03628e-23)
(0.993679 -0.00133832 -2.06897e-23)
(0.994626 -0.00114588 3.63404e-23)
(0.995439 -0.00097635 -2.00992e-23)
(0.996133 -0.00082833 -1.54103e-23)
(0.996723 -0.00070017 1.81164e-24)
(0.997223 -0.00059017 1.04702e-23)
(0.997647 -0.000496375 -1.17506e-24)
(0.998003 -0.000417052 0)
(0.998305 -0.000350185 -4.1696e-24)
(0.998558 -0.000294312 -2.80955e-25)
(0.998773 -0.000247492 2.82927e-24)
(0.998952 -0.000208809 2.04963e-24)
(0.999108 -0.000176305 -2.51631e-24)
(0.999234 -0.00014988 -3.89106e-25)
(0.99935 -0.000127222 2.68747e-25)
(0.999438 -0.000109498 -3.30105e-25)
(0.999529 -9.32985e-05 -2.07639e-25)
(0.999587 -8.20048e-05 -2.14263e-26)
(0.999665 -6.9586e-05 -1.57213e-25)
(0.999695 -6.36926e-05 -6.60284e-26)
(0.999776 -5.24963e-05 -4.12804e-26)
(-0.42469 0.115404 2.39599e-21)
(-0.465787 0.0583488 2.45e-21)
(-0.458141 0.0263787 1.62721e-19)
(-0.457846 -0.00707868 -1.57902e-19)
(-0.441599 -0.0307931 -1.51716e-19)
(-0.422189 -0.0533099 1.59016e-19)
(-0.395089 -0.074099 4.524e-21)
(-0.362107 -0.0976985 4.25159e-21)
(-0.32108 -0.125846 -9.25998e-23)
(-0.270291 -0.160008 1.69554e-21)
(-0.206326 -0.200216 8.83282e-20)
(-0.128828 -0.239978 -8.69631e-20)
(-0.0415947 -0.272484 2.41815e-20)
(0.0573304 -0.289954 -9.28552e-21)
(0.162517 -0.290838 -2.18921e-20)
(0.262558 -0.277729 6.96651e-21)
(0.355164 -0.255153 0)
(0.438557 -0.22703 0)
(0.512101 -0.197502 8.15227e-21)
(0.575953 -0.169357 -8.16045e-21)
(0.631049 -0.144192 -8.77911e-21)
(0.67848 -0.122465 2.54508e-22)
(0.7191 -0.103911 8.8425e-21)
(0.753726 -0.0881394 -7.47238e-21)
(0.783178 -0.0747982 7.73959e-21)
(0.808205 -0.0635576 -6.38245e-21)
(0.829451 -0.0541132 6.38866e-21)
(0.84747 -0.0462 0)
(0.862749 -0.0395954 -4.66845e-21)
(0.87572 -0.0341126 4.52697e-21)
(0.886769 -0.0295929 -3.40655e-21)
(0.896237 -0.0258975 6.72428e-21)
(0.904425 -0.0229016 -3.09847e-21)
(0.911589 -0.0204917 -2.38315e-21)
(0.917948 -0.0185645 2.38546e-21)
(0.923683 -0.0170259 6.18503e-23)
(0.928938 -0.0157917 0)
(0.933825 -0.0147879 4.75331e-23)
(0.938428 -0.0139504 -1.15372e-21)
(0.942806 -0.0132259 1.88023e-22)
(0.946999 -0.0125716 1.08659e-21)
(0.951027 -0.0119551 8.95362e-22)
(0.954902 -0.0113534 -8.15581e-22)
(0.958623 -0.0107519 -6.08035e-22)
(0.962187 -0.0101431 6.70524e-22)
(0.965587 -0.00952474 1.7035e-23)
(0.968815 -0.0088987 1.50104e-23)
(0.971863 -0.00826907 2.60189e-23)
(0.974727 -0.00764122 1.72769e-22)
(0.977402 -0.00702092 -1.63017e-22)
(0.979886 -0.00641358 9.01114e-24)
(0.982181 -0.00582425 1.17434e-22)
(0.984286 -0.00525731 -1.03856e-22)
(0.986206 -0.00471624 6.10216e-24)
(0.987946 -0.0042045 5.35053e-24)
(0.989511 -0.00372435 -7.41372e-23)
(0.99091 -0.00327717 1.34409e-22)
(0.992151 -0.0028658 -5.72532e-23)
(0.993245 -0.00248712 4.95086e-23)
(0.994205 -0.00214661 -4.64176e-23)
(0.995043 -0.00184303 2.38363e-24)
(0.995768 -0.0015744 2.07384e-24)
(0.996392 -0.00133903 1.80278e-24)
(0.996928 -0.00113453 -1.15514e-23)
(0.997384 -0.000958414 2.29315e-23)
(0.997774 -0.00080775 -8.84498e-24)
(0.998104 -0.000679962 9.86123e-25)
(0.998385 -0.000571928 -5.55785e-24)
(0.998622 -0.000481449 7.19296e-24)
(0.998824 -0.000405437 6.24824e-25)
(0.998994 -0.000342527 3.99933e-24)
(0.999142 -0.000289529 -3.08919e-24)
(0.999262 -0.000246406 1.79308e-24)
(0.999373 -0.000209311 -1.08327e-24)
(0.999458 -0.000180316 -2.61611e-25)
(0.999545 -0.000153691 4.9539e-26)
(0.999601 -0.000135195 5.15433e-25)
(0.999677 -0.000114707 2.432e-26)
(0.999705 -0.000105067 8.59184e-26)
(0.999783 -8.65736e-05 2.13382e-26)
(-0.177408 0.149227 2.4819e-21)
(-0.200694 0.0769396 1.67382e-19)
(-0.188425 0.0276382 6.18856e-22)
(-0.178386 -0.012771 -3.31917e-19)
(-0.160799 -0.0454846 3.21e-19)
(-0.1384 -0.0726073 -1.62296e-19)
(-0.11144 -0.0978093 -2.32648e-21)
(-0.079458 -0.125519 -1.4236e-19)
(-0.041309 -0.159499 2.66861e-19)
(0.00305549 -0.202625 -1.28857e-19)
(0.0587038 -0.252835 9.50534e-20)
(0.130623 -0.305665 -9.68247e-20)
(0.211585 -0.351259 -5.66411e-20)
(0.295236 -0.375491 9.63158e-20)
(0.379469 -0.379968 -3.80012e-20)
(0.458336 -0.364745 0)
(0.529115 -0.335228 0)
(0.591273 -0.298225 -8.28178e-21)
(0.645241 -0.259452 8.16303e-21)
(0.691762 -0.222458 0)
(0.731842 -0.189086 0)
(0.766655 -0.160178 0)
(0.797006 -0.135619 0)
(0.823301 -0.11484 -2.13979e-22)
(0.845917 -0.0972707 0)
(0.86526 -0.0824328 1.19865e-20)
(0.881715 -0.0699274 -1.17069e-21)
(0.895626 -0.0594219 -1.28502e-21)
(0.907308 -0.050637 -9.56153e-21)
(0.917061 -0.0433361 -7.66256e-21)
(0.925173 -0.0373169 7.55305e-21)
(0.931914 -0.0324009 2.9816e-21)
(0.937538 -0.028427 -2.98383e-21)
(0.94227 -0.0252471 -2.30119e-21)
(0.94631 -0.0227251 2.30291e-21)
(0.949824 -0.0207361 -5.72954e-23)
(0.95295 -0.0191674 0)
(0.955798 -0.0179186 0)
(0.95845 -0.0169027 -7.93043e-23)
(0.960967 -0.0160462 0)
(0.963391 -0.0152899 8.92649e-22)
(0.965747 -0.0145877 -1.39206e-22)
(0.968048 -0.0139068 -9.77403e-23)
(0.970297 -0.0132256 -1.36553e-21)
(0.972493 -0.0125321 5.92973e-22)
(0.974629 -0.0118219 0)
(0.976699 -0.0110963 -4.44465e-22)
(0.978692 -0.0103597 4.1799e-22)
(0.980603 -0.00961865 -3.33917e-22)
(0.982424 -0.00888027 3.24201e-22)
(0.984149 -0.00815125 0)
(0.985774 -0.0074382 -7.36575e-24)
(0.987294 -0.00674666 -6.76559e-24)
(0.988707 -0.00608158 0)
(0.990012 -0.00544742 0)
(0.991207 -0.00484772 -4.36227e-24)
(0.992294 -0.00428542 0)
(0.993274 -0.0037618 3.33459e-24)
(0.994152 -0.00327829 4.47597e-23)
(0.994932 -0.002842 -4.47935e-23)
(0.995624 -0.00244998 0)
(0.996231 -0.00210048 3.1539e-23)
(0.99676 -0.00179247 -2.96288e-23)
(0.99722 -0.00152356 -1.45828e-24)
(0.997617 -0.00129094 0)
(0.997959 -0.00109112 0)
(0.998251 -0.000920998 -1.93184e-24)
(0.998503 -0.00077662 0)
(0.998716 -0.000655286 0)
(0.998901 -0.00055299 3.91309e-24)
(0.999056 -0.000468092 -1.19944e-24)
(0.999193 -0.000396325 -4.30308e-24)
(0.999304 -0.00033781 2.34145e-24)
(0.999408 -0.0002873 -2.70355e-24)
(0.999487 -0.000247783 6.48246e-25)
(0.999569 -0.000211351 -1.09161e-24)
(0.999622 -0.000186067 0)
(0.999694 -0.000157922 0)
(0.99972 -0.000144727 -1.0015e-25)
(0.999795 -0.000119285 3.71094e-26)
(0.0528477 0.170413 3.08011e-19)
(0.0528952 0.0926876 2.56605e-21)
(0.0678358 0.0323921 1.70218e-19)
(0.0834828 -0.0161322 -1.623e-19)
(0.099938 -0.056621 2.60306e-21)
(0.120527 -0.089503 -1.55179e-19)
(0.145391 -0.118682 1.6036e-19)
(0.175575 -0.149748 -1.42955e-19)
(0.212885 -0.187762 1.49771e-19)
(0.258749 -0.237182 1.97161e-21)
(0.314129 -0.294335 1.7432e-21)
(0.381447 -0.355426 0)
(0.455032 -0.410151 1.43279e-21)
(0.526784 -0.443786 -4.84769e-20)
(0.591589 -0.450358 4.93236e-20)
(0.646763 -0.432444 0)
(0.692691 -0.397425 5.53244e-21)
(0.731094 -0.353829 -5.53566e-21)
(0.763847 -0.30842 7.43918e-21)
(0.792391 -0.265254 -7.31584e-21)
(0.817597 -0.226183 -2.90192e-22)
(0.840175 -0.191937 0)
(0.860719 -0.162651 0)
(0.879367 -0.137843 2.16966e-22)
(0.896028 -0.116827 -3.48929e-22)
(0.910675 -0.0989848 0)
(0.923363 -0.0838265 0)
(0.93419 -0.070982 -1.234e-22)
(0.943282 -0.0601567 -8.07955e-21)
(0.950793 -0.0511043 7.85695e-21)
(0.956896 -0.0436099 0)
(0.961782 -0.0374766 -1.79388e-22)
(0.965647 -0.0325193 0)
(0.968684 -0.028563 -1.39975e-22)
(0.97107 -0.025443 0)
(0.972962 -0.0230062 5.7894e-23)
(0.974495 -0.0211129 0)
(0.975777 -0.0196379 -8.35289e-23)
(0.976897 -0.0184717 2.32231e-21)
(0.977919 -0.0175209 -2.34869e-21)
(0.97889 -0.0167093 3.01368e-23)
(0.979844 -0.0159767 7.25516e-22)
(0.980799 -0.0152791 -1.45813e-21)
(0.981766 -0.0145864 6.82756e-22)
(0.982747 -0.0138809 1.80801e-23)
(0.983742 -0.0131545 4.3662e-22)
(0.984745 -0.0124064 -4.52771e-22)
(0.985752 -0.0116405 0)
(0.986756 -0.010863 -2.05052e-23)
(0.987751 -0.0100814 0)
(0.988728 -0.00930318 0)
(0.989683 -0.00853536 7.40669e-24)
(0.990608 -0.00778411 0)
(0.991497 -0.00705556 1.66969e-22)
(0.992344 -0.00635465 -1.67044e-22)
(0.993145 -0.00568599 4.38115e-24)
(0.993894 -0.00505422 0)
(0.99459 -0.00446094 -3.34697e-24)
(0.995225 -0.00390743 0)
(0.995802 -0.00340139 0)
(0.996327 -0.00294606 -3.67055e-23)
(0.996799 -0.00253769 3.05726e-23)
(0.997217 -0.00217501 -3.18032e-24)
(0.997586 -0.00185608 1.99712e-23)
(0.997911 -0.00157852 -4.20884e-23)
(0.998195 -0.00133881 1.63589e-23)
(0.998441 -0.00113378 -1.27794e-23)
(0.998656 -0.000958983 1.37315e-23)
(0.998841 -0.000811477 0)
(0.999002 -0.000686581 0)
(0.999139 -0.000582562 5.08323e-25)
(0.999261 -0.000494267 2.26515e-24)
(0.999361 -0.000422086 -5.27604e-24)
(0.999455 -0.000359519 2.00104e-24)
(0.999527 -0.000310507 2.41581e-25)
(0.999602 -0.000265115 2.92799e-25)
(0.99965 -0.000233635 -6.53093e-25)
(0.999717 -0.000198411 0)
(0.999741 -0.000181953 -5.13215e-26)
(0.999811 -0.000150051 -3.6136e-26)
(0.263121 0.19005 0)
(0.28039 0.110742 -5.31957e-21)
(0.301117 0.0464632 3.46998e-19)
(0.318021 -0.00863085 -3.52374e-19)
(0.333437 -0.0556169 0)
(0.35138 -0.0949065 3.27417e-19)
(0.373212 -0.130312 -6.98227e-21)
(0.400881 -0.16685 -3.20489e-19)
(0.437288 -0.209586 -9.24013e-21)
(0.484763 -0.263284 -2.61789e-19)
(0.544618 -0.328467 2.65684e-19)
(0.614492 -0.398229 -1.9317e-19)
(0.684484 -0.458503 3.51331e-19)
(0.743753 -0.494194 -1.57368e-19)
(0.787654 -0.499842 -1.39187e-21)
(0.817692 -0.478961 1.15195e-21)
(0.837996 -0.440156 0)
(0.852735 -0.392771 0)
(0.865058 -0.343847 1.29958e-21)
(0.876772 -0.297407 -1.32367e-21)
(0.8885 -0.25526 1.55102e-22)
(0.90023 -0.217921 9.61241e-21)
(0.911953 -0.185491 -9.61421e-21)
(0.923614 -0.157742 0)
(0.934886 -0.134103 3.54958e-22)
(0.945403 -0.113919 0)
(0.954898 -0.096621 -2.63135e-22)
(0.963218 -0.0817933 8.14921e-21)
(0.970303 -0.0691319 -8.11176e-21)
(0.976161 -0.0584074 2.29867e-22)
(0.980853 -0.0494293 0)
(0.984486 -0.0420187 1.82387e-23)
(0.987195 -0.0359957 4.49785e-21)
(0.989129 -0.0311775 -4.03766e-22)
(0.990438 -0.0273823 -4.09846e-21)
(0.991265 -0.0244337 3.17385e-21)
(0.991736 -0.0221666 -3.17405e-21)
(0.991959 -0.020431 2.45642e-21)
(0.992021 -0.0190939 -2.44983e-21)
(0.991992 -0.0180413 5.02807e-24)
(0.991924 -0.0171787 5.29067e-23)
(0.991854 -0.0164308 5.03567e-23)
(0.991807 -0.0157409 -1.32807e-21)
(0.991801 -0.0150692 1.25108e-21)
(0.991843 -0.0143907 0)
(0.991938 -0.0136924 2.24103e-24)
(0.992086 -0.0129703 0)
(0.992285 -0.012226 -3.63041e-22)
(0.992531 -0.0114652 3.42824e-22)
(0.992822 -0.0106945 0)
(0.99315 -0.00992136 -1.4837e-23)
(0.993512 -0.00915218 0)
(0.993899 -0.00839368 0)
(0.994307 -0.00765139 -1.6732e-22)
(0.994726 -0.00693125 1.48462e-22)
(0.99515 -0.00623811 -1.2821e-22)
(0.995572 -0.0055774 2.32497e-22)
(0.995987 -0.00495351 -1.896e-23)
(0.996384 -0.00436913 -1.77958e-22)
(0.996755 -0.00381894 8.06192e-23)
(0.997105 -0.00332147 4.22471e-24)
(0.997433 -0.00287487 3.41289e-24)
(0.997734 -0.00247676 3.18892e-24)
(0.998008 -0.00212387 2.76574e-24)
(0.998254 -0.0018144 1.70804e-25)
(0.998474 -0.00154531 2.07117e-24)
(0.998669 -0.00131371 0)
(0.998842 -0.00111507 -1.42521e-24)
(0.998993 -0.000946612 -9.44827e-24)
(0.999128 -0.000803271 1.64556e-23)
(0.999243 -0.000683409 -1.23081e-24)
(0.999347 -0.000581189 -6.75836e-24)
(0.999434 -0.000497374 0)
(0.999515 -0.00042438 -1.39587e-24)
(0.999578 -0.000367116 1.53668e-24)
(0.999645 -0.000313812 3.59174e-25)
(0.999687 -0.000276874 0)
(0.999747 -0.000235303 1.75045e-25)
(0.999768 -0.000215955 7.35351e-26)
(0.999831 -0.000178228 3.55805e-26)
(0.439573 0.193628 2.95598e-19)
(0.468643 0.127075 -3.34918e-19)
(0.498229 0.0654823 3.39711e-19)
(0.519637 0.00796404 3.52885e-19)
(0.53659 -0.0436421 -3.52631e-19)
(0.554119 -0.0890594 3.43564e-19)
(0.575841 -0.131615 -6.81501e-19)
(0.605154 -0.175402 6.51179e-19)
(0.645087 -0.225293 -6.0879e-19)
(0.697589 -0.285518 2.9994e-19)
(0.762324 -0.35593 -4.05991e-21)
(0.832837 -0.428909 -3.55147e-21)
(0.895689 -0.489579 0)
(0.938966 -0.523486 0)
(0.960179 -0.526277 0)
(0.965114 -0.503127 -2.63875e-21)
(0.961556 -0.463147 0)
(0.955435 -0.415354 2.52269e-20)
(0.950379 -0.366282 -2.52227e-20)
(0.948002 -0.319499 2.43192e-23)
(0.948434 -0.276641 1.43718e-22)
(0.951055 -0.23825 0)
(0.955194 -0.204292 0)
(0.960479 -0.174642 0)
(0.966576 -0.149031 0)
(0.973034 -0.126988 0)
(0.979403 -0.107988 2.68421e-22)
(0.985321 -0.0915872 7.30201e-21)
(0.990547 -0.0774421 -7.05001e-21)
(0.994942 -0.0653083 0)
(0.998449 -0.0550091 0)
(1.00109 -0.046392 1.66692e-22)
(1.00293 -0.039304 2.78472e-22)
(1.00408 -0.0335803 -3.74707e-21)
(1.00465 -0.0290434 4.32824e-22)
(1.00476 -0.0255102 3.40264e-21)
(1.00453 -0.0228007 -2.5742e-21)
(1.00406 -0.0207451 2.65213e-21)
(1.00344 -0.0191897 0)
(1.00272 -0.0180001 6.10001e-23)
(1.00196 -0.0170631 -1.59555e-21)
(1.00121 -0.0162868 1.5413e-21)
(1.00049 -0.015601 1.23603e-21)
(0.99982 -0.0149547 -1.15753e-21)
(0.99921 -0.0143143 0)
(0.998669 -0.0136608 -7.88037e-22)
(0.998201 -0.0129857 8.16034e-22)
(0.997807 -0.0122884 4.19453e-23)
(0.997487 -0.0115725 1.9344e-23)
(0.997239 -0.0108436 -4.90447e-22)
(0.997061 -0.0101082 5.05217e-22)
(0.996949 -0.00937219 0)
(0.9969 -0.00864144 1.05151e-23)
(0.996906 -0.00792093 1.01293e-23)
(0.996962 -0.00721601 8.87442e-24)
(0.99706 -0.00653191 7.76529e-24)
(0.997193 -0.00587379 -6.78369e-24)
(0.997353 -0.00524711 9.08827e-23)
(0.997536 -0.00465905 -7.97496e-23)
(0.997722 -0.00410604 0)
(0.997905 -0.00358853 0)
(0.998093 -0.0031173 -3.4255e-24)
(0.998278 -0.00269762 0)
(0.998457 -0.00232412 -3.68792e-23)
(0.998624 -0.00199471 7.22002e-24)
(0.99878 -0.00170667 3.18619e-23)
(0.998922 -0.00145735 0)
(0.999052 -0.00124195 1.30745e-25)
(0.999167 -0.00105814 -8.66645e-24)
(0.999273 -0.000900806 9.70563e-24)
(0.999364 -0.00076863 6.23969e-24)
(0.999449 -0.000655308 -5.49062e-24)
(0.999519 -0.000562079 2.74236e-24)
(0.999587 -0.00048047 -3.9347e-25)
(0.999639 -0.000416343 -1.36535e-24)
(0.999696 -0.000356329 1.10566e-24)
(0.999732 -0.000314778 -1.10524e-24)
(0.999783 -0.000267739 -3.31464e-25)
(0.999801 -0.000245936 0)
(0.999856 -0.000203168 3.25702e-26)
(0.577596 0.173813 4.85329e-21)
(0.614376 0.129746 -3.4122e-19)
(0.65238 0.0777533 -1.64394e-20)
(0.683094 0.0232035 -4.69074e-21)
(0.709165 -0.0302321 -1.38582e-21)
(0.734985 -0.0805004 3.59366e-19)
(0.765073 -0.130079 0)
(0.803208 -0.181823 3.33434e-19)
(0.851337 -0.239135 -3.35376e-19)
(0.909227 -0.304337 0)
(0.97421 -0.375819 2.62725e-19)
(1.03741 -0.446108 -4.92584e-19)
(1.0846 -0.501858 2.2993e-19)
(1.10612 -0.530878 0)
(1.10337 -0.531437 0)
(1.08578 -0.509353 1.50153e-21)
(1.06305 -0.472498 0)
(1.04112 -0.428234 4.22403e-20)
(1.02297 -0.38208 -1.66815e-20)
(1.00968 -0.337164 -2.55108e-20)
(1.00092 -0.295101 3.85649e-21)
(0.995805 -0.256677 -3.85356e-21)
(0.993371 -0.222069 0)
(0.992899 -0.191192 0)
(0.993958 -0.163868 0)
(0.996194 -0.139877 0)
(0.999174 -0.118974 0)
(1.00246 -0.100838 0)
(1.0057 -0.0851447 0)
(1.00859 -0.071629 0)
(1.01097 -0.0600884 6.74008e-23)
(1.01272 -0.0503572 4.17128e-21)
(1.01385 -0.0422833 -4.3003e-21)
(1.01439 -0.0357072 0)
(1.01443 -0.0304553 -2.96555e-21)
(1.01406 -0.0263426 5.49628e-21)
(1.01336 -0.0231808 -2.58826e-21)
(1.01245 -0.0207872 -3.15817e-23)
(1.01138 -0.0189924 2.79033e-23)
(1.01024 -0.017645 -1.59011e-21)
(1.00906 -0.0166154 1.58857e-21)
(1.00789 -0.0157967 1.23342e-21)
(1.00675 -0.0151051 -1.23223e-21)
(1.00567 -0.0144786 0)
(1.00465 -0.0138747 1.31131e-23)
(1.00371 -0.0132678 -7.54454e-22)
(1.00284 -0.0126448 7.52371e-22)
(1.00206 -0.0120019 -2.91831e-23)
(1.00137 -0.011341 5.15078e-22)
(1.00075 -0.0106666 -9.45896e-22)
(1.00022 -0.00998401 4.39616e-22)
(0.999773 -0.00929844 5.37684e-24)
(0.999404 -0.00861454 -1.53326e-23)
(0.999112 -0.00793666 4.14051e-24)
(0.998891 -0.00726886 0)
(0.998735 -0.00661617 1.01317e-22)
(0.998636 -0.00598256 -1.89624e-22)
(0.998588 -0.00537452 9.07329e-23)
(0.998583 -0.00479701 -2.09987e-24)
(0.998614 -0.00425807 1.82353e-24)
(0.998668 -0.00375015 -1.58666e-24)
(0.998734 -0.00328216 1.38029e-24)
(0.998812 -0.00285299 3.83391e-23)
(0.998903 -0.00246751 -3.83036e-23)
(0.998997 -0.00212599 -2.87224e-23)
(0.999091 -0.00182566 3.9231e-24)
(0.999183 -0.00156516 2.47501e-23)
(0.999271 -0.00133902 -7.23789e-24)
(0.999352 -0.00114502 8.61062e-24)
(0.999428 -0.000977962 -6.18248e-24)
(0.999496 -0.000836937 6.24042e-24)
(0.99956 -0.000715359 -4.378e-24)
(0.999614 -0.000614988 7.98884e-24)
(0.999667 -0.000526663 -3.87782e-24)
(0.999708 -0.000457138 -1.2707e-24)
(0.999754 -0.000391729 2.25106e-24)
(0.999782 -0.000346473 -1.33817e-24)
(0.999824 -0.000294964 5.82008e-25)
(0.999839 -0.00027118 -3.90412e-26)
(0.999884 -0.000224304 1.21688e-26)
(0.747414 0.137984 2.89157e-19)
(0.776041 0.11602 0)
(0.812705 0.0773946 2.73413e-21)
(0.8493 0.0280078 -2.82564e-21)
(0.886415 -0.0244316 -3.60478e-19)
(0.924599 -0.079636 7.19968e-19)
(0.966913 -0.136787 -5.96956e-21)
(1.01545 -0.195977 -1.2403e-20)
(1.0697 -0.258787 -3.39809e-19)
(1.12674 -0.325355 0)
(1.18064 -0.392725 0)
(1.22173 -0.454129 1.01481e-21)
(1.24128 -0.499593 2.1107e-19)
(1.23677 -0.523174 -2.10683e-19)
(1.21295 -0.525116 0)
(1.17963 -0.50894 5.1305e-22)
(1.14525 -0.479448 0)
(1.11379 -0.441694 0)
(1.08692 -0.400258 0)
(1.06537 -0.358079 -2.7979e-20)
(1.04889 -0.317079 4.45698e-20)
(1.03673 -0.278519 -1.66063e-20)
(1.02806 -0.243057 0)
(1.02221 -0.210859 -2.24027e-21)
(1.01859 -0.18187 2.23697e-21)
(1.01667 -0.155989 0)
(1.01605 -0.133036 0)
(1.01637 -0.112763 2.35974e-23)
(1.01728 -0.0949803 -8.32791e-21)
(1.01842 -0.0795354 8.31495e-21)
(1.01951 -0.0662689 -6.90787e-23)
(1.02033 -0.0550286 0)
(1.02079 -0.0456641 -3.1674e-21)
(1.02083 -0.0380109 3.16233e-21)
(1.02048 -0.031884 0)
(1.01979 -0.0270823 -2.28695e-21)
(1.01882 -0.0233964 2.26189e-21)
(1.01765 -0.0206202 1.83261e-21)
(1.01634 -0.0185597 -1.83787e-21)
(1.01496 -0.0170409 1.39525e-21)
(1.01356 -0.0159132 -1.41293e-21)
(1.01216 -0.0150516 0)
(1.0108 -0.014357 7.31387e-24)
(1.00949 -0.0137547 0)
(1.00825 -0.0131927 7.30058e-22)
(1.00709 -0.0126378 -7.61424e-23)
(1.00601 -0.0120723 -6.69283e-22)
(1.00501 -0.0114893 -5.02776e-22)
(1.0041 -0.0108888 5.03055e-22)
(1.00327 -0.0102746 -7.0411e-24)
(1.00252 -0.00965146 3.54414e-22)
(1.00187 -0.00902408 -4.96866e-23)
(1.0013 -0.00839633 -3.02573e-22)
(1.00081 -0.0077718 -4.18122e-24)
(1.0004 -0.00715357 1.57752e-24)
(1.00007 -0.00654524 1.79418e-22)
(0.999807 -0.00595088 -1.80342e-22)
(0.999609 -0.00537493 -2.43127e-24)
(0.999467 -0.00482275 1.20358e-24)
(0.999372 -0.00429978 -5.31551e-23)
(0.999315 -0.0038127 5.28368e-23)
(0.999292 -0.00335863 -1.38702e-24)
(0.999294 -0.00293702 -5.15538e-25)
(0.999312 -0.0025555 0)
(0.999344 -0.00221465 0)
(0.999384 -0.00191154 0)
(0.99943 -0.00164411 1.88358e-23)
(0.999481 -0.00141081 -1.90964e-23)
(0.99953 -0.00121006 4.90191e-25)
(0.99958 -0.00103639 -4.16882e-25)
(0.999625 -0.000889194 5.0298e-24)
(0.99967 -0.000761696 -5.1162e-24)
(0.999708 -0.000656118 -1.04596e-25)