/*--------------------------------*- C++ -*----------------------------------*\
| =========                 |                                                 |
| \\      /  F ield         | OpenFOAM: The Open Source CFD Toolbox           |
|  \\    /   O peration     | Version:  4.1                                   |
|   \\  /    A nd           | Web:      www.OpenFOAM.org                      |
|    \\/     M anipulation  |                                                 |
\*---------------------------------------------------------------------------*/
FoamFile
{
    version     2.0;
    format      ascii;
    class       volVectorField;
    location    "8.8";
    object      U;
}
// * * * * * * * * * * * * * * * * * * * * * * * * * * * * * * * * * * * * * //

dimensions      [0 1 -1 0 0 0 0];

internalField   nonuniform List<vector> 
2000
(
(-0.043597 0.0366461 3.38915e-20)
(-0.0277334 0.0470654 0)
(0.0771619 0.0357732 5.25275e-20)
(0.257731 0.0175691 2.31725e-20)
(0.495349 0.00205404 -4.31613e-20)
(0.760583 -0.00735535 -5.7869e-20)
(1.02443 -0.00914911 1.81246e-20)
(1.257 -0.0105455 0)
(1.47186 -0.00181561 -1.48724e-20)
(1.60105 -0.00672758 0)
(-0.040009 0.0298229 -1.67306e-20)
(0.0148745 0.0252571 1.4538e-20)
(0.186708 0.00825187 -5.68471e-20)
(0.447144 -0.00648018 -7.46042e-20)
(0.752494 -0.0118116 -1.00483e-21)
(1.054 -0.00853706 1.89328e-20)
(1.31623 -0.000243776 -1.85747e-20)
(1.52476 0.0069375 -1.61504e-20)
(1.67936 0.016727 1.48716e-20)
(1.76528 0.0104023 2.57541e-20)
(-0.0291765 0.0208219 1.86237e-20)
(0.0839181 0.00165291 -1.74441e-20)
(0.341653 -0.0143817 2.86608e-20)
(0.68278 -0.0171579 -1.70271e-21)
(1.03011 -0.00750556 2.26315e-20)
(1.32692 0.00762093 2.02209e-20)
(1.55088 0.0220261 1.80736e-20)
(1.70382 0.0311379 1.615e-20)
(1.7994 0.0370256 1.37162e-20)
(1.86113 0.0315811 -1.19771e-20)
(-0.00824947 0.00987638 -7.23745e-22)
(0.185036 -0.020552 -1.91084e-20)
(0.53934 -0.0255631 0)
(0.939866 -0.00987428 2.51511e-20)
(1.28757 0.0137424 -2.52832e-20)
(1.54231 0.0350361 0)
(1.70759 0.0492476 0)
(1.80532 0.055138 0)
(1.86356 0.0571367 -1.3717e-20)
(1.89281 0.0497013 2.28698e-20)
(0.0258211 -0.00201517 4.71002e-20)
(0.320684 -0.0356196 7.79868e-23)
(0.764425 -0.0193448 1.81583e-20)
(1.18501 0.0150784 1.35726e-20)
(1.49501 0.0464274 1.28608e-20)
(1.68999 0.0671574 1.0623e-20)
(1.79989 0.0769692 0)
(1.85921 0.0787471 7.17218e-21)
(1.89204 0.0764254 -2.91822e-20)
(1.91584 0.0674257 3.79381e-20)
(0.0756258 -0.0125899 -7.52331e-20)
(0.486729 -0.0362958 2.04727e-21)
(0.99171 0.00625861 -3.61253e-20)
(1.39223 0.0535439 3.2141e-20)
(1.64456 0.0853446 -3.71901e-20)
(1.78173 0.101084 1.22175e-20)
(1.85 0.105286 0)
(1.8845 0.102645 -7.17282e-21)
(1.907 0.0966363 5.87826e-21)
(1.92593 0.0875482 1.55667e-20)
(0.142163 -0.0185614 0)
(0.670358 -0.0172664 0)
(1.19748 0.0489509 -1.89428e-20)
(1.55147 0.101044 1.7634e-20)
(1.7433 0.127863 -1.19971e-20)
(1.8332 0.136471 1.12636e-20)
(1.87291 0.13464 1.45151e-20)
(1.89403 0.127732 -1.37202e-20)
(1.91093 0.118651 -8.4962e-21)
(1.92914 0.108821 4.05542e-21)
(0.223995 -0.0162904 1.56771e-20)
(0.853394 0.0224984 0)
(1.36801 0.10488 -8.85562e-21)
(1.66417 0.1545 3.32419e-20)
(1.80172 0.172824 -2.02424e-20)
(1.85631 0.173274 0)
(1.87825 0.165458 0)
(1.89228 0.154388 0)
(1.90761 0.142447 -6.24516e-21)
(1.92572 0.131828 5.93652e-21)
(0.31655 -0.00281544 -8.04163e-21)
(1.0191 0.0801665 -3.40164e-22)
(1.4986 0.170305 -1.06336e-20)
(1.73608 0.211819 3.90313e-21)
(1.82903 0.219493 3.69373e-21)
(1.85908 0.211459 4.88419e-21)
(1.87063 0.197745 0)
(1.88168 0.182556 -7.5661e-22)
(1.89654 0.167969 -2.11066e-21)
(1.91469 0.155589 1.65078e-21)
(0.41276 0.0233552 0)
(1.15668 0.151206 -6.81097e-21)
(1.58952 0.241808 0)
(1.7735 0.27141 -2.26623e-21)
(1.83211 0.267254 -2.0931e-21)
(1.84606 0.250686 -2.0756e-21)
(1.85218 0.231114 0)
(1.8623 0.211752 7.5669e-22)
(1.87759 0.194388 3.739e-22)
(1.89627 0.179605 -2.44749e-22)
(-0.00975716 0.00933956 0)
(-0.0388631 0.0172246 -2.64421e-21)
(-0.0800178 0.019958 0)
(-0.119885 0.0205078 -3.53873e-21)
(-0.156091 0.0201614 -1.1405e-21)
(-0.188637 0.0195414 2.15304e-21)
(-0.21784 0.0189637 -2.02764e-21)
(-0.244191 0.018595 1.97911e-21)
(-0.268397 0.0185696 -4.89591e-24)
(-0.291537 0.0190193 1.81407e-21)
(-0.0113528 0.0268186 -8.34201e-21)
(-0.0397935 0.0498114 5.22676e-21)
(-0.0777285 0.0579766 -5.0482e-21)
(-0.113471 0.0596258 2.34405e-21)
(-0.144964 0.0584864 1.13217e-20)
(-0.172163 0.0564036 -4.26259e-21)
(-0.195306 0.0543382 0)
(-0.214743 0.0528378 -1.97245e-21)
(-0.230948 0.052348 -1.89883e-21)
(-0.245425 0.0533143 0)
(-0.0142717 0.0409523 5.56388e-21)
(-0.041706 0.0771615 0)
(-0.073893 0.0905244 1.53488e-20)
(-0.10217 0.0932475 -1.93383e-20)
(-0.125087 0.091096 4.56836e-21)
(-0.142626 0.0870176 0)
(-0.154959 0.0826048 0)
(-0.162266 0.0788756 0)
(-0.164477 0.0767221 1.56192e-20)
(-0.163238 0.0771215 -1.48442e-20)
(-0.0180139 0.0504245 0)
(-0.0446109 0.0968683 -1.13161e-20)
(-0.0696459 0.114746 2.10849e-20)
(-0.088236 0.118404 -9.87024e-21)
(-0.099878 0.115036 9.49438e-21)
(-0.104751 0.108434 -2.70102e-20)
(-0.103047 0.100671 -2.35151e-22)
(-0.0949783 0.0931664 1.63381e-20)
(-0.079904 0.0874239 1.57749e-20)
(-0.0571787 0.0859129 -2.2502e-20)
(-0.0220951 0.0550433 1.21359e-20)
(-0.0484128 0.107843 -2.34965e-20)
(-0.065927 0.128864 -1.13902e-22)
(-0.0735503 0.132997 1.47752e-22)
(-0.0719708 0.128222 9.65964e-21)
(-0.0617491 0.118867 -2.73659e-20)
(-0.0431467 0.107231 0)
(-0.0165753 0.0947742 -8.31841e-21)
(0.0185302 0.0833809 7.91208e-21)
(0.0676044 0.0778054 -3.0707e-20)
(-0.0262423 0.05559 -2.73658e-22)
(-0.0528321 0.110334 2.39537e-20)
(-0.0628816 0.132306 1.10174e-20)
(-0.0584426 0.135844 1.06976e-20)
(-0.0413626 0.129246 9.70058e-21)
(-0.0125845 0.117134 9.18854e-21)
(0.0276101 0.101897 0)
(0.0786894 0.0848413 8.31774e-21)
(0.138456 0.0672103 2.34323e-20)
(0.226393 0.0556085 -7.77757e-21)
(-0.0304624 0.053426 4.37405e-23)
(-0.0572497 0.105716 1.25221e-20)
(-0.0591364 0.125694 0)
(-0.0403769 0.126837 -2.08019e-20)
(-0.0034801 0.117521 1.97726e-20)
(0.0503906 0.102495 0)
(0.120826 0.0843667 0)
(0.207935 0.0650887 0)
(0.298427 0.0429833 -1.5773e-20)
(0.445258 0.0267002 -3.02943e-20)
(-0.0348309 0.049944 -1.38554e-20)
(-0.0603373 0.0958518 1.29787e-20)
(-0.0510247 0.110623 2.37863e-20)
(-0.0124487 0.107249 3.66059e-22)
(0.0527999 0.094127 2.00024e-20)
(0.143133 0.0761633 1.86251e-20)
(0.256493 0.0560987 1.74733e-20)
(0.393257 0.0378602 1.64145e-20)
(0.520369 0.0150682 1.57708e-20)
(0.738029 0.000747967 -1.43063e-20)
(-0.0391445 0.0460231 -4.4292e-20)
(-0.0594608 0.0823575 -1.28703e-20)
(-0.0319277 0.0892377 -4.77165e-20)
(0.0370728 0.0797848 -2.17294e-20)
(0.144566 0.0627428 3.14663e-22)
(0.286342 0.0431785 -1.84351e-20)
(0.455135 0.0239592 1.75899e-20)
(0.645119 0.00952351 -1.64121e-20)
(0.814783 -0.00813428 1.55404e-20)
(1.07583 -0.0128481 -2.94894e-20)
(-0.0425799 0.0417777 2.98828e-20)
(-0.0504194 0.0660804 0)
(0.00737873 0.0636325 2.45339e-20)
(0.122836 0.0483134 -2.33081e-23)
(0.289339 0.0294813 4.696e-22)
(0.49409 0.0120649 1.87888e-20)
(0.720464 -0.000633958 -5.2934e-20)
(0.946497 -0.00942038 0)
(1.15689 -0.0148093 -1.55379e-20)
(1.38867 -0.0106036 0)
(-0.314361 0.0197381 0)
(-0.338604 0.0190989 -1.85955e-21)
(-0.361733 0.0182422 3.75664e-21)
(-0.383902 0.0173049 -1.65707e-21)
(-0.405012 0.0162536 0)
(-0.42488 0.0150602 1.93701e-21)
(-0.443295 0.0136952 -1.9466e-21)
(-0.460003 0.0121271 0)
(-0.474705 0.0103236 0)
(-0.487038 0.00825248 2.37226e-22)
(-0.496556 0.00587814 0)
(-0.502776 0.00315804 0)
(-0.505303 5.14131e-05 0)
(-0.503692 -0.00346277 0)
(-0.497519 -0.00735914 -3.01456e-22)
(-0.486498 -0.0115224 3.03018e-22)
(-0.470012 -0.0156993 0)
(-0.445871 -0.0196459 -5.67905e-23)
(-0.412427 -0.023394 5.70894e-23)
(-0.382194 -0.0266925 0)
(-0.260855 0.0552414 0)
(-0.281171 0.0534584 4.73598e-22)
(-0.300089 0.0510106 0)
(-0.318073 0.0483175 7.51767e-21)
(-0.335166 0.0452941 -7.29744e-21)
(-0.351184 0.0418694 4.99554e-22)
(-0.365936 0.0379643 -3.93785e-21)
(-0.3792 0.0334955 8.36968e-21)
(-0.390725 0.0283815 -7.29011e-21)
(-0.40022 0.022541 4.12631e-21)
(-0.407346 0.0158849 3.62392e-21)
(-0.411757 0.00832088 -6.62157e-21)
(-0.41325 -0.000238616 3.45203e-21)
(-0.411442 -0.00990615 1.84204e-21)
(-0.40602 -0.0206593 -1.45317e-21)
(-0.396757 -0.0322776 3.0529e-22)
(-0.383238 -0.0441601 2.47244e-22)
(-0.363704 -0.0555377 2.56448e-22)
(-0.3359 -0.0661948 -2.57691e-22)
(-0.308635 -0.0754243 2.60408e-23)
(-0.166644 0.0800426 -4.75691e-22)
(-0.179647 0.077332 -4.74432e-22)
(-0.191084 0.0737227 -4.92679e-22)
(-0.201629 0.069649 0)
(-0.211578 0.0650145 -9.04739e-21)
(-0.22076 0.0597486 7.06416e-21)
(-0.229005 0.0537521 0)
(-0.236123 0.0469106 -1.01646e-21)
(-0.241911 0.0391242 -4.95404e-22)
(-0.246155 0.0303092 6.82851e-21)
(-0.248614 0.0203952 -2.88264e-22)
(-0.249055 0.00930471 -8.52263e-21)
(-0.247615 -0.00311876 -4.50444e-22)
(-0.244031 -0.0169819 -3.93238e-22)
(-0.23817 -0.0323013 -3.77768e-22)
(-0.229989 -0.0489708 8.41866e-22)
(-0.219392 -0.0664683 -7.7184e-22)
(-0.205504 -0.0837171 -8.96256e-22)
(-0.185985 -0.0998678 -1.91716e-22)
(-0.16333 -0.113786 1.15326e-23)
(-0.04701 0.0888374 -1.50532e-20)
(-0.0511189 0.0865221 -2.09976e-22)
(-0.053167 0.0825712 2.77576e-22)
(-0.0545189 0.0776617 1.61043e-20)
(-0.0555704 0.0720104 1.54275e-21)
(-0.0561893 0.0655218 5.1228e-22)
(-0.0562583 0.0580471 -1.56478e-20)
(-0.055631 0.0494754 8.93132e-21)
(-0.0541273 0.0397146 8.36029e-21)
(-0.0515572 0.0287102 -8.64417e-21)
(-0.0477219 0.0164381 2.68572e-22)
(-0.0426503 0.00299327 9.33982e-21)
(-0.0365429 -0.0119849 4.467e-22)
(-0.0291329 -0.0283699 4.1193e-21)
(-0.0205148 -0.0461111 -2.88311e-21)
(-0.0108658 -0.0651411 -2.46043e-21)
(-0.000271825 -0.0851851 2.16001e-21)
(0.0112232 -0.105638 0)
(0.0240835 -0.125291 3.90911e-22)
(0.0426192 -0.142406 3.45843e-23)
(0.0915566 0.0810778 3.04094e-20)
(0.098112 0.0803388 -1.50534e-20)
(0.10403 0.0765648 1.6078e-20)
(0.111588 0.0713731 0)
(0.119676 0.0653312 -1.03519e-21)
(0.127894 0.0583135 -1.69388e-20)
(0.136329 0.0500719 -1.11416e-21)
(0.145135 0.0404765 3.52852e-23)
(0.154444 0.0294861 1.70453e-20)
(0.164392 0.0171354 1.03497e-21)
(0.175288 0.00352313 0)
(0.186581 -0.0117249 -9.745e-22)
(0.198214 -0.028412 0)
(0.210599 -0.0463108 -8.61328e-22)
(0.223433 -0.0653216 0)
(0.236479 -0.0852466 0)
(0.249296 -0.105709 5.6485e-22)
(0.261924 -0.12656 -7.18769e-22)
(0.272836 -0.146528 6.3829e-22)
(0.289522 -0.165759 -1.85645e-22)
(0.260009 0.0607079 0)
(0.275443 0.0613197 -1.00408e-21)
(0.287077 0.0578967 -3.28527e-20)
(0.301067 0.0527011 3.1819e-20)
(0.316484 0.0466347 -1.0473e-21)
(0.332141 0.039516 0)
(0.347856 0.0310083 -1.71614e-20)
(0.363849 0.020955 3.32434e-20)
(0.380325 0.00941256 -1.82277e-20)
(0.397299 -0.00360326 -1.05975e-21)
(0.414303 -0.0182444 -1.03731e-21)
(0.431211 -0.034552 -1.00262e-21)
(0.448496 -0.0520252 0)
(0.465857 -0.070597 5.88817e-21)
(0.48294 -0.0900461 -1.36371e-20)
(0.49966 -0.110097 6.05158e-21)
(0.515121 -0.130107 -5.86694e-22)
(0.530442 -0.150093 -4.44357e-22)
(0.541169 -0.167737 1.88765e-22)
(0.558489 -0.187265 -1.87159e-22)
(0.4809 0.0339728 3.00837e-20)
(0.500466 0.0356022 0)
(0.514001 0.0319622 -1.01837e-21)
(0.530318 0.0265374 2.06098e-21)
(0.549276 0.0204776 2.08838e-21)
(0.569064 0.0131953 1.05305e-21)
(0.589147 0.00442521 1.06111e-21)
(0.609746 -0.00591728 -1.60175e-20)
(0.630923 -0.0178605 1.91724e-20)
(0.652195 -0.0314425 1.87447e-20)
(0.673491 -0.0466948 -1.55886e-20)
(0.694792 -0.0631442 1.97406e-21)
(0.715899 -0.0807341 -7.27703e-21)
(0.736509 -0.0992644 1.44967e-21)
(0.756245 -0.118366 8.25097e-21)
(0.77512 -0.137743 6.85715e-22)
(0.791763 -0.156461 -8.7504e-22)
(0.808285 -0.174972 1.0283e-21)
(0.818688 -0.189733 1.68159e-21)
(0.83526 -0.207057 8.99432e-23)
(0.766455 0.00957123 0)
(0.783581 0.0109034 -3.26691e-20)
(0.79498 0.00583231 3.35478e-20)
(0.809668 -0.000338187 -1.03051e-21)
(0.827829 -0.00689941 -2.06539e-21)
(0.847565 -0.0146192 -1.0521e-21)
(0.868211 -0.0239765 -2.09578e-21)
(0.889559 -0.0348766 0)
(0.911559 -0.0472938 -1.05022e-21)
(0.933828 -0.0611582 -1.03469e-21)
(0.956163 -0.0763214 -9.87235e-22)
(0.978084 -0.0926106 -1.91902e-21)
(0.99952 -0.109861 0)
(1.01984 -0.127727 0)
(1.03897 -0.145808 -7.6968e-22)
(1.05637 -0.163776 -6.15629e-21)
(1.07141 -0.180578 4.26555e-21)
(1.08506 -0.196841 -3.98797e-22)
(1.09368 -0.208848 -8.55834e-22)
(1.10487 -0.222592 2.46818e-22)
(1.09285 -0.00374797 3.07703e-20)
(1.104 -0.00517882 0)
(1.11224 -0.012638 0)
(1.12406 -0.0200132 -3.24575e-20)
(1.13936 -0.0276239 5.82413e-22)
(1.15621 -0.0366067 6.52218e-20)
(1.17386 -0.0471971 -3.15202e-20)
(1.19228 -0.0589642 0)
(1.21129 -0.0718711 0)
(1.23017 -0.0859008 0)
(1.24895 -0.100991 5.06854e-22)
(1.26673 -0.116879 1.38072e-21)
(1.28396 -0.133378 1.33549e-20)
(1.29915 -0.150097 -1.2876e-20)
(1.31347 -0.166671 5.35441e-21)
(1.32453 -0.182708 -4.68627e-21)
(1.3347 -0.197294 0)
(1.34046 -0.210789 2.04668e-22)
(1.34552 -0.22036 2.41588e-22)
(1.34597 -0.230031 0)
(1.40921 -0.00974584 -4.99094e-22)
(1.42139 -0.017472 -3.21158e-20)
(1.43061 -0.025548 3.1782e-20)
(1.4405 -0.032544 0)
(1.45101 -0.0403469 3.15626e-20)
(1.46167 -0.0497351 -6.26688e-20)
(1.47272 -0.0602637 3.11101e-20)
(1.48389 -0.0718108 0)
(1.49527 -0.0844699 1.51023e-20)
(1.50601 -0.0981651 -2.962e-20)
(1.51668 -0.112755 1.49834e-20)
(1.52579 -0.127961 -4.39305e-22)
(1.53476 -0.143524 0)
(1.54081 -0.159076 -1.15435e-20)
(1.54713 -0.174169 1.595e-20)
(1.5486 -0.188469 -4.84503e-21)
(1.55187 -0.201119 -3.19763e-21)
(1.54732 -0.212316 2.23971e-21)
(1.54814 -0.220062 1.09405e-21)
(1.53617 -0.226578 0)
(1.71948 -0.00600819 0)
(1.71197 -0.0156419 0)
(1.7058 -0.0236401 0)
(1.70089 -0.0317702 0)
(1.69805 -0.0409196 0)
(1.69707 -0.0509347 0)
(1.69782 -0.0615797 0)
(1.69927 -0.0728484 0)
(1.70156 -0.0847982 0)
(1.70337 -0.0974015 0)
(1.70565 -0.110567 0)
(1.70626 -0.124148 0)
(1.70742 -0.137883 0)
(1.70532 -0.151599 0)
(1.70463 -0.164784 0)
(1.6983 -0.177444 0)
(1.69585 -0.188531 0)
(1.68379 -0.198783 0)
(1.68105 -0.205754 0)
(1.66126 -0.212475 0)
(1.83334 0.000749198 0)
(1.83468 -0.00828965 0)
(1.83366 -0.0172012 0)
(1.8314 -0.0268666 0)
(1.82953 -0.0373392 0)
(1.82825 -0.0483725 0)
(1.8277 -0.0598173 0)
(1.82685 -0.0716466 0)
(1.82618 -0.0838688 0)
(1.82436 -0.0964712 0)
(1.82275 -0.109341 0)
(1.81906 -0.122379 0)
(1.81602 -0.135295 0)
(1.80941 -0.148005 0)
(1.80472 -0.159971 0)
(1.79408 -0.171323 0)
(1.78833 -0.181031 0)
(1.77242 -0.18989 0)
(1.76756 -0.195749 0)
(1.74459 -0.201122 0)
(1.90215 0.0030249 0)
(1.90659 -0.00721086 0)
(1.90688 -0.0168934 0)
(1.90518 -0.0269203 0)
(1.90371 -0.0374285 0)
(1.9026 -0.0483245 0)
(1.90193 -0.0595084 0)
(1.90054 -0.0709478 0)
(1.89899 -0.0826069 0)
(1.89592 -0.0944792 0)
(1.89288 -0.106423 0)
(1.88753 -0.11839 0)
(1.88287 -0.130061 0)
(1.87451 -0.141452 0)
(1.86832 -0.151983 0)
(1.85612 -0.161943 0)
(1.84927 -0.170246 0)
(1.83221 -0.177887 0)
(1.82692 -0.182702 0)
(1.80329 -0.187353 0)
(1.94779 0.00504803 0)
(1.9534 -0.00599831 0)
(1.95437 -0.0165223 0)
(1.95296 -0.0268264 0)
(1.95157 -0.0371829 0)
(1.9504 -0.0477062 0)
(1.94957 -0.0583854 0)
(1.94789 -0.0692089 0)
(1.94594 -0.0801145 0)
(1.94236 -0.0911048 0)
(1.93878 -0.102026 0)
(1.93286 -0.112882 0)
(1.92768 -0.123345 0)
(1.91887 -0.133516 0)
(1.91236 -0.14279 0)
(1.9 -0.151584 0)
(1.8931 -0.158767 0)
(1.87632 -0.16552 0)
(1.8712 -0.169608 0)
(1.84838 -0.173954 0)
(1.98261 0.00527874 0)
(1.98868 -0.00596989 0)
(1.99032 -0.0166664 0)
(1.98934 -0.0268655 0)
(1.98808 -0.0368624 0)
(1.98685 -0.0468728 0)
(1.98588 -0.0569441 0)
(1.98402 -0.0670812 0)
(1.98187 -0.0772038 0)
(1.97808 -0.0873176 0)
(1.97432 -0.0972665 0)
(1.96826 -0.107089 0)
(1.96303 -0.116465 0)
(1.95429 -0.12555 0)
(1.94792 -0.133748 0)
(1.93595 -0.141543 0)
(1.92939 -0.14782 0)
(1.91342 -0.15383 0)
(1.90866 -0.157382 0)
(1.88719 -0.161405 0)
(2.01534 0.00424047 0)
(2.02145 -0.00663361 0)
(2.02351 -0.0170559 0)
(2.02284 -0.02694 0)
(2.02163 -0.036495 0)
(2.02026 -0.0459478 0)
(2.0191 -0.0553778 0)
(2.01704 -0.0648073 0)
(2.01473 -0.0741524 0)
(2.01079 -0.0834205 0)
(2.00695 -0.0924592 0)
(2.00087 -0.101328 0)
(1.9957 -0.109725 0)
(1.98717 -0.117836 0)
(1.98105 -0.125093 0)
(1.96957 -0.13201 0)
(1.96342 -0.137518 0)
(1.94829 -0.142872 0)
(1.94392 -0.145975 0)
(1.92374 -0.149656 0)
(2.05002 0.00271084 0)
(2.05579 -0.00748932 0)
(2.0579 -0.0174246 0)
(2.05733 -0.0268772 0)
(2.05606 -0.0359434 0)
(2.05445 -0.0448208 0)
(2.05301 -0.0536027 0)
(2.05066 -0.0623276 0)
(2.04813 -0.0709184 0)
(2.04401 -0.0793846 0)
(2.04005 -0.0875813 0)
(2.03391 -0.095578 0)
(2.02876 -0.103098 0)
(2.02036 -0.110339 0)
(2.01445 -0.116773 0)
(2.00335 -0.122914 0)
(1.99754 -0.127763 0)
(1.98306 -0.132528 0)
(1.97901 -0.135249 0)
(1.95985 -0.138589 0)
(2.08721 0.001149 0)
(2.09233 -0.0083157 0)
(2.09424 -0.01766 0)
(2.09362 -0.0265874 0)
(2.09221 -0.0351132 0)
(2.09032 -0.0433969 0)
(2.08853 -0.0515307 0)
(2.08583 -0.0595642 0)
(2.083 -0.0674309 0)
(2.07862 -0.0751419 0)
(2.07447 -0.0825625 0)
(2.06818 -0.0897648 0)
(2.06299 -0.0964982 0)
(2.0546 -0.10296 0)
(2.04879 -0.108671 0)
(2.0379 -0.114123 0)
(2.03231 -0.1184 0)
(2.01826 -0.122633 0)
(2.01443 -0.125027 0)
(1.99598 -0.128027 0)
(2.12597 -0.000295523 0)
(2.13029 -0.00901063 0)
(2.13188 -0.0176867 0)
(2.13112 -0.0260117 0)
(2.12952 -0.0339508 0)
(2.12732 -0.0416232 0)
(2.12515 -0.0491114 0)
(2.12206 -0.0564691 0)
(2.1189 -0.0636406 0)
(2.1142 -0.0706382 0)
(2.10981 -0.0773384 0)
(2.10331 -0.0838115 0)
(2.09799 -0.0898329 0)
(2.08951 -0.0955924 0)
(2.0837 -0.10066 0)
(2.07287 -0.105493 0)
(2.06739 -0.109268 0)
(2.05357 -0.113016 0)
(2.04988 -0.115122 0)
(2.03184 -0.117791 0)
(2.16508 -0.00154912 0)
(2.16859 -0.00949157 0)
(2.16977 -0.0174498 0)
(2.16881 -0.0251206 0)
(2.167 -0.0324366 0)
(2.16448 -0.0394817 0)
(2.16194 -0.0463255 0)
(2.15845 -0.0530205 0)
(2.15493 -0.0595204 0)
(2.14989 -0.0658381 0)
(2.14523 -0.0718621 0)
(2.13846 -0.0776579 0)
(2.13296 -0.0830264 0)
(2.12431 -0.0881448 0)
(2.11844 -0.0926311 0)
(2.10755 -0.096904 0)
(2.10211 -0.100229 0)
(2.08835 -0.103535 0)
(2.08473 -0.105384 0)
(2.06689 -0.107737 0)
(2.20348 -0.00253844 0)
(2.20618 -0.00969561 0)
(2.20692 -0.0169118 0)
(2.20571 -0.023897 0)
(2.20368 -0.030564 0)
(2.20083 -0.036969 0)
(2.19794 -0.0431686 0)
(2.19404 -0.0492112 0)
(2.19017 -0.0550586 0)
(2.18477 -0.0607231 0)
(2.17983 -0.0661055 0)
(2.17277 -0.0712655 0)
(2.16707 -0.0760279 0)
(2.15819 -0.0805543 0)
(2.15222 -0.0845096 0)
(2.14119 -0.0882693 0)
(2.13574 -0.0911874 0)
(2.12192 -0.0940862 0)
(2.11833 -0.0957045 0)
(2.10052 -0.0977611 0)
(2.24026 -0.00320619 0)
(2.24217 -0.00958182 0)
(2.24245 -0.0160484 0)
(2.24096 -0.022332 0)
(2.23869 -0.0283343 0)
(2.23553 -0.0340907 0)
(2.23229 -0.0396467 0)
(2.22801 -0.0450459 0)
(2.2238 -0.0502562 0)
(2.21805 -0.0552893 0)
(2.21283 -0.0600581 0)
(2.20546 -0.0646154 0)
(2.19956 -0.068809 0)
(2.19043 -0.0727832 0)
(2.18433 -0.0762474 0)
(2.1731 -0.0795323 0)
(2.1676 -0.0820776 0)
(2.15365 -0.0846004 0)
(2.15007 -0.0860078 0)
(2.13219 -0.0877878 0)
(2.27462 -0.0035302 0)
(2.27578 -0.00913892 0)
(2.2756 -0.0148573 0)
(2.27383 -0.0204316 0)
(2.27132 -0.0257598 0)
(2.26787 -0.0308626 0)
(2.26432 -0.0357766 0)
(2.25968 -0.0405399 0)
(2.25514 -0.0451263 0)
(2.24906 -0.0495458 0)
(2.24357 -0.0537235 0)
(2.23591 -0.0577047 0)
(2.22979 -0.0613595 0)
(2.22041 -0.0648133 0)
(2.21417 -0.067818 0)
(2.20273 -0.07066 0)
(2.19716 -0.0728596 0)
(2.18303 -0.0750328 0)
(2.17943 -0.0762457 0)
(2.16141 -0.0777689 0)
(2.30585 -0.00352458 0)
(2.30632 -0.00838328 0)
(2.30571 -0.0133574 0)
(2.30368 -0.0182184 0)
(2.30096 -0.022867 0)
(2.29725 -0.0273132 0)
(2.29342 -0.0315869 0)
(2.28846 -0.0357208 0)
(2.28364 -0.0396938 0)
(2.27725 -0.0435141 0)
(2.27152 -0.0471184 0)
(2.26358 -0.0505447 0)
(2.25727 -0.0536839 0)
(2.24763 -0.0566427 0)
(2.24126 -0.059213 0)
(2.2296 -0.0616374 0)
(2.22395 -0.0635129 0)
(2.20963 -0.0653589 0)
(2.206 -0.0663905 0)
(2.18781 -0.0676751 0)
(2.3333 -0.00323521 0)
(2.33321 -0.00735764 0)
(2.33224 -0.0115908 0)
(2.32998 -0.0157354 0)
(2.3271 -0.0196995 0)
(2.32318 -0.0234866 0)
(2.31911 -0.0271207 0)
(2.31389 -0.0306296 0)
(2.30883 -0.0339965 0)
(2.30218 -0.0372281 0)
(2.29624 -0.0402719 0)
(2.28806 -0.0431591 0)
(2.28158 -0.0458 0)
(2.27172 -0.0482831 0)
(2.26522 -0.0504379 0)
(2.25334 -0.0524646 0)
(2.24762 -0.0540325 0)
(2.2331 -0.0555691 0)
(2.22945 -0.0564297 0)
(2.21107 -0.0574914 0)
(2.35653 -0.00273801 0)
(2.356 -0.00613142 0)
(2.35476 -0.00962282 0)
(2.35235 -0.0130449 0)
(2.34935 -0.0163175 0)
(2.34529 -0.0194405 0)
(2.34105 -0.0224331 0)
(2.33562 -0.0253178 0)
(2.33037 -0.0280819 0)
(2.32351 -0.0307306 0)
(2.31741 -0.0332217 0)
(2.30902 -0.0355801 0)
(2.30241 -0.0377343 0)
(2.29234 -0.0397553 0)
(2.28573 -0.0415077 0)
(2.27367 -0.0431514 0)
(2.26788 -0.0444234 0)
(2.25317 -0.0456645 0)
(2.2495 -0.0463615 0)
(2.23093 -0.047213 0)
(2.37529 -0.00213748 0)
(2.37445 -0.00479954 0)
(2.37304 -0.00754002 0)
(2.37055 -0.0102265 0)
(2.36749 -0.0127944 0)
(2.36333 -0.0152429 0)
(2.35899 -0.0175862 0)
(2.3534 -0.0198426 0)
(2.34802 -0.0220017 0)
(2.341 -0.0240682 0)
(2.33477 -0.026009 0)
(2.32622 -0.0278436 0)
(2.31949 -0.0295172 0)
(2.30926 -0.0310846 0)
(2.30256 -0.0324424 0)
(2.29033 -0.0337133 0)
(2.28449 -0.0346969 0)
(2.26961 -0.0356528 0)
(2.2659 -0.0361908 0)
(2.24716 -0.0368423 0)
(2.38953 -0.00153009 0)
(2.3885 -0.00345345 0)
(2.38699 -0.00542789 0)
(2.38445 -0.00735997 0)
(2.38137 -0.00920419 0)
(2.37715 -0.0109621 0)
(2.37273 -0.0126429 0)
(2.36704 -0.0142614 0)
(2.36156 -0.0158079 0)
(2.35442 -0.0172882 0)
(2.3481 -0.0186754 0)
(2.33942 -0.0199873 0)
(2.33261 -0.0211806 0)
(2.32225 -0.0222994 0)
(2.31548 -0.0232651 0)
(2.30311 -0.0241706 0)
(2.29721 -0.0248683 0)
(2.28219 -0.0255477 0)
(2.27846 -0.0259282 0)
(2.25957 -0.026388 0)
(2.39918 -0.000858128 0)
(2.39804 -0.00205554 0)
(2.39647 -0.00326363 0)
(2.39392 -0.00443568 0)
(2.39083 -0.00554862 0)
(2.38657 -0.00660893 0)
(2.3821 -0.00761995 0)
(2.37634 -0.00859519 0)
(2.37079 -0.00952374 0)
(2.36357 -0.0104155 0)
(2.35718 -0.0112462 0)
(2.34842 -0.0120366 0)
(2.34153 -0.0127484 0)
(2.33108 -0.0134233 0)
(2.32425 -0.0139962 0)
(2.31179 -0.0145442 0)
(2.30585 -0.0149546 0)
(2.29073 -0.0153673 0)
(2.28698 -0.015588 0)
(2.26798 -0.0158655 0)
(2.40403 -0.000102886 0)
(2.40286 -0.000555106 0)
(2.40129 -0.000993566 0)
(2.39874 -0.00140944 0)
(2.39564 -0.00179831 0)
(2.39137 -0.0021658 0)
(2.38688 -0.00251278 0)
(2.38108 -0.00284656 0)
(2.37549 -0.00316156 0)
(2.36822 -0.00346463 0)
(2.3618 -0.00374393 0)
(2.35298 -0.00401166 0)
(2.34607 -0.00424898 0)
(2.33556 -0.00447771 0)
(2.32871 -0.00466689 0)
(2.31619 -0.00485348 0)
(2.31023 -0.00498712 0)
(2.29505 -0.00512876 0)
(2.29129 -0.00519899 0)
(2.27222 -0.00529393 0)
(1.91733 0.161581 2.39147e-22)
(1.93521 0.144286 0)
(1.94536 0.126498 1.3178e-22)
(1.95034 0.108405 4.43291e-21)
(1.94668 0.090282 -1.62026e-20)
(1.94133 0.0732219 0)
(1.9259 0.0555031 -2.19531e-20)
(1.89955 0.041791 0)
(1.88597 0.0231556 -2.69596e-20)
(1.73088 0.00426083 4.27937e-22)
(1.94305 0.14681 -6.2944e-22)
(1.95916 0.132099 -2.16004e-24)
(1.96853 0.11652 2.16443e-24)
(1.97188 0.101965 -1.6345e-21)
(1.9712 0.0858169 4.5244e-21)
(1.95963 0.0725574 4.16901e-22)
(1.96176 0.0565383 0)
(1.91622 0.0440976 1.95779e-20)
(1.94915 0.0319851 0)
(1.83057 0.0114636 2.49351e-20)
(1.97425 0.131923 1.42648e-21)
(1.9863 0.119344 0)
(1.99708 0.105164 3.09843e-23)
(1.99415 0.0928054 -1.57724e-21)
(2.00086 0.0785073 -4.9465e-21)
(1.97709 0.0666822 0)
(1.9947 0.0542204 -1.28554e-20)
(1.93797 0.0404191 -2.00039e-20)
(1.97492 0.0326489 0)
(1.89586 0.0150399 -2.4681e-20)
(2.00851 0.118772 -7.11032e-22)
(2.01576 0.107531 2.27449e-21)
(2.02968 0.09512 0)
(2.01981 0.0836938 -1.41308e-21)
(2.0329 0.0719605 -2.2196e-22)
(2.0015 0.059776 5.47193e-22)
(2.02219 0.0506021 1.25956e-20)
(1.96991 0.0362566 4.19659e-22)
(1.99233 0.0294826 1.57701e-20)
(1.93954 0.0163157 0)
(2.04393 0.107 0)
(2.04753 0.0966147 -2.24345e-21)
(2.06346 0.0863373 -1.91669e-21)
(2.05024 0.0752593 3.47302e-23)
(2.06455 0.0660309 2.02999e-23)
(2.03387 0.0537863 2.39509e-22)
(2.0483 0.0463256 7.29681e-21)
(2.00683 0.0335761 7.455e-22)
(2.01589 0.026185 -2.8692e-21)
(1.97421 0.0162167 -1.5872e-20)
(2.07921 0.0963141 1.19755e-21)
(2.08137 0.0866185 1.63877e-22)
(2.09675 0.0781616 -7.98752e-22)
(2.08433 0.0676211 9.16649e-23)
(2.09575 0.0599578 -4.95079e-22)
(2.0704 0.0487546 0)
(2.07731 0.0416351 -8.10429e-21)
(2.0443 0.0312437 2.53838e-22)
(2.04656 0.0230858 -2.38579e-20)
(2.00748 0.014756 2.89865e-20)
(2.11386 0.0864466 -1.20344e-21)
(2.11625 0.0775774 -1.96868e-21)
(2.12947 0.0702987 2.29185e-21)
(2.11979 0.0607596 -3.28839e-21)
(2.12757 0.0537466 -1.18276e-21)
(2.10747 0.0441519 1.99258e-22)
(2.10996 0.0368567 -1.82032e-22)
(2.08121 0.0282843 4.43998e-22)
(2.08146 0.0199034 1.04161e-20)
(2.04286 0.0124819 -1.31413e-20)
(2.14779 0.0772784 0)
(2.15094 0.0694007 4.38822e-21)
(2.16193 0.0628082 -3.80519e-22)
(2.15481 0.0545047 1.39539e-21)
(2.16026 0.0477569 -9.68155e-22)
(2.14354 0.0396438 6.3286e-22)
(2.14466 0.0323347 6.10972e-22)
(2.11804 0.024904 0)
(2.11837 0.0168919 0)
(2.08092 0.0100964 0)
(2.18087 0.0688066 0)
(2.18454 0.0619371 -4.32657e-21)
(2.19401 0.0558369 -2.51111e-22)
(2.18855 0.0486875 2.18812e-21)
(2.19314 0.0422376 2.52932e-21)
(2.17843 0.0352333 -8.41675e-22)
(2.17972 0.0282719 -6.51979e-22)
(2.15497 0.0216066 5.1706e-23)
(2.15583 0.0142411 0)
(2.12065 0.00789892 -3.27347e-21)
(2.2127 0.0610321 1.74337e-22)
(2.21654 0.0550612 2.49598e-21)
(2.22516 0.0494524 3.54516e-21)
(2.22074 0.0432411 -8.90009e-23)
(2.22525 0.0372497 2.95226e-22)
(2.21213 0.031053 -2.64641e-21)
(2.21396 0.0246726 1.23306e-21)
(2.19151 0.0185885 -4.17842e-24)
(2.19272 0.0118938 0)
(2.16074 0.00591846 5.59096e-21)
(2.24275 0.0539154 0)
(2.24659 0.0487002 2.72576e-21)
(2.25472 0.0436337 3.25428e-22)
(2.25117 0.0381689 0)
(2.25579 0.0327506 0)
(2.24438 0.0271886 2.41466e-21)
(2.24661 0.0214534 -9.97527e-22)
(2.22689 0.0158571 1.98761e-23)
(2.22821 0.00980238 2.39276e-23)
(2.20006 0.00418949 -2.36936e-21)
(2.27044 0.0473798 0)
(2.27434 0.0428069 -5.29318e-21)
(2.28207 0.0383142 -4.95788e-21)
(2.27949 0.0334771 6.39407e-22)
(2.28415 0.0286713 -3.84334e-22)
(2.27468 0.0236614 -1.85296e-22)
(2.27709 0.0185624 2.83575e-22)
(2.2604 0.0134268 1.16624e-21)
(2.26168 0.00800605 6.76897e-24)
(2.23772 0.00278108 1.91871e-23)
(2.29522 0.0413263 0)
(2.29933 0.0373261 2.88637e-21)
(2.30669 0.0334101 -2.71972e-22)
(2.30522 0.0291422 2.69725e-22)
(2.30984 0.0249457 0)
(2.30246 0.0204616 0)
(2.30493 0.0159837 0)
(2.2914 0.0113232 -1.28628e-21)
(2.29257 0.00653822 8.39728e-22)
(2.27289 0.00173455 0)
(2.3166 0.0356384 0)
(2.32109 0.0321768 1.91289e-21)
(2.32813 0.028825 2.24632e-21)
(2.32789 0.0251061 2.56812e-21)
(2.33243 0.0215043 -4.54802e-22)
(2.3272 0.0175522 2.27479e-21)
(2.32966 0.0136856 -1.5817e-21)
(2.31928 0.00953188 0)
(2.32031 0.00537649 5.50313e-22)
(2.30484 0.00104023 -4.22414e-22)
(2.33426 0.0301813 -4.72796e-22)
(2.33927 0.0272486 -1.56805e-21)
(2.34606 0.0244462 -2.90966e-21)
(2.3471 0.0212788 -1.81382e-21)
(2.35158 0.0182581 0)
(2.34845 0.0148605 -2.82442e-21)
(2.3509 0.0115965 2.32476e-21)
(2.34352 0.00798859 -2.02493e-22)
(2.34441 0.00445426 -4.53174e-22)
(2.33289 0.000646364 8.28392e-22)
(2.34818 0.0248083 4.75223e-22)
(2.3538 0.0224114 -1.27642e-21)
(2.36045 0.020149 1.01907e-21)
(2.36273 0.0175477 -2.30446e-21)
(2.36718 0.0150985 0)
(2.36599 0.0122838 0)
(2.36844 0.00961484 2.3216e-22)
(2.36376 0.00659644 -1.99666e-21)
(2.36457 0.00367954 -7.39766e-22)
(2.35657 0.000467784 -4.25198e-22)
(2.35875 0.0193973 0)
(2.36498 0.0175524 2.05123e-21)
(2.37155 0.015826 -6.80501e-22)
(2.37494 0.0138081 2.09693e-21)
(2.37937 0.0119228 5.27095e-22)
(2.37984 0.00971601 -3.36003e-22)
(2.38231 0.00763585 5.80751e-22)
(2.37992 0.00524536 1.35723e-21)
(2.38068 0.00294664 0)
(2.37563 0.000389229 0)
(2.36659 0.0139211 0)
(2.37331 0.0126426 8.59326e-22)
(2.37981 0.0114512 -1.43635e-21)
(2.38405 0.0100297 0)
(2.38847 0.00870081 -9.9524e-22)
(2.39023 0.00711476 -3.51815e-22)
(2.3927 0.00561618 -8.93597e-22)
(2.39208 0.00387078 -1.94708e-22)
(2.39283 0.00218959 1.23097e-22)
(2.39005 0.000309021 6.37376e-23)
(2.37208 0.00840216 0)
(2.37907 0.00770332 -8.63447e-22)
(2.38548 0.00706072 -7.0983e-22)
(2.39027 0.00626098 8.99702e-22)
(2.39464 0.00550132 4.43096e-22)
(2.39726 0.00455875 4.06138e-22)
(2.39972 0.00365063 1.51254e-21)
(2.40031 0.00256818 -9.53568e-22)
(2.40103 0.00150746 1.98438e-22)
(2.39981 0.000311131 0)
(2.37502 0.00266817 0)
(2.38211 0.00256239 4.09472e-22)
(2.38843 0.00247039 -3.77893e-22)
(2.39347 0.00230593 3.40584e-22)
(2.39781 0.0021304 0)
(2.40084 0.00186408 -4.08161e-22)
(2.40328 0.00158098 2.85882e-22)
(2.40446 0.00121037 2.01492e-22)
(2.40517 0.000820466 0)
(2.40471 0.000361743 0)
(1.29196 0.308629 0)
(1.24544 0.337731 -5.17415e-20)
(1.20917 0.37573 0)
(1.17996 0.424023 -1.71013e-19)
(1.1542 0.481946 6.68243e-20)
(1.13002 0.551719 2.943e-21)
(1.10578 0.635258 5.02004e-20)
(1.06365 0.723141 -1.02755e-20)
(0.928645 0.750266 0)
(0.538118 0.477411 4.11671e-20)
(1.37447 0.310863 9.30044e-20)
(1.33073 0.347914 5.17396e-20)
(1.29865 0.38472 -4.71055e-20)
(1.27295 0.431341 5.77135e-20)
(1.25117 0.488672 -4.43931e-20)
(1.23278 0.557851 1.01123e-20)
(1.21599 0.640064 -5.33403e-20)
(1.17988 0.724379 -9.97792e-20)
(1.03844 0.744057 -2.64172e-20)
(0.600071 0.462984 -5.90593e-20)
(1.45319 0.307914 -3.92614e-20)
(1.41571 0.347261 4.0266e-20)
(1.38766 0.383451 4.71033e-20)
(1.36445 0.429162 4.74964e-20)
(1.346 0.485756 4.73971e-20)
(1.33309 0.553536 4.63682e-20)
(1.32312 0.632865 1.18453e-20)
(1.29124 0.710902 3.8272e-20)
(1.1402 0.720593 8.15796e-21)
(0.652184 0.435095 -8.70844e-21)
(1.53137 0.302083 7.84978e-20)
(1.49889 0.341198 -4.02638e-20)
(1.47379 0.375987 0)
(1.45261 0.419936 0)
(1.43721 0.474532 0)
(1.42925 0.539512 2.763e-20)
(1.42484 0.614219 -1.79476e-20)
(1.39434 0.683396 0)
(1.22934 0.680417 -7.62501e-23)
(0.689259 0.394247 2.75751e-21)
(1.60612 0.292882 -1.22777e-20)
(1.57729 0.33028 4.91156e-20)
(1.55456 0.363263 0)
(1.53548 0.404783 0)
(1.52307 0.456164 1.05244e-20)
(1.51941 0.516954 8.19e-21)