/*--------------------------------*- C++ -*----------------------------------*\
| =========                 |                                                 |
| \\      /  F ield         | OpenFOAM: The Open Source CFD Toolbox           |
|  \\    /   O peration     | Version:  4.1                                   |
|   \\  /    A nd           | Web:      www.OpenFOAM.org                      |
|    \\/     M anipulation  |                                                 |
\*---------------------------------------------------------------------------*/
FoamFile
{
    version     2.0;
    format      ascii;
    class       volScalarField;
    location    "5.2";
    object      p;
}
// * * * * * * * * * * * * * * * * * * * * * * * * * * * * * * * * * * * * * //

dimensions      [0 2 -2 0 0 0 0];

internalField   nonuniform List<scalar> 
2000
(
-0.311745
-0.299801
-0.290119
-0.280903
-0.270874
-0.258669
-0.24335
-0.225147
-0.203184
-0.181848
-0.332716
-0.317783
-0.305824
-0.293535
-0.279016
-0.261308
-0.240423
-0.217194
-0.192245
-0.168695
-0.356858
-0.338461
-0.323599
-0.306954
-0.286346
-0.261945
-0.234997
-0.207042
-0.17908
-0.152867
-0.383574
-0.361343
-0.342619
-0.319887
-0.291567
-0.25965
-0.226624
-0.194349
-0.163797
-0.136386
-0.411832
-0.385386
-0.361401
-0.330594
-0.293229
-0.253492
-0.214688
-0.178536
-0.145743
-0.116696
-0.439818
-0.408918
-0.377781
-0.337004
-0.289879
-0.242554
-0.198534
-0.159046
-0.124247
-0.0937571
-0.464994
-0.429577
-0.389154
-0.337022
-0.280177
-0.225965
-0.177458
-0.135146
-0.0985752
-0.0666382
-0.484305
-0.444351
-0.39288
-0.328823
-0.26299
-0.202923
-0.150774
-0.106206
-0.0681177
-0.0349413
-0.494575
-0.44998
-0.386517
-0.310951
-0.237394
-0.172704
-0.117843
-0.0716537
-0.032443
0.00159068
-0.492905
-0.443498
-0.367974
-0.282311
-0.202688
-0.134703
-0.0780954
-0.0309973
0.00874409
0.04296
-0.202058
-0.207295
-0.208619
-0.208428
-0.206843
-0.203417
-0.197865
-0.1901
-0.180297
-0.169071
-0.205853
-0.210589
-0.211818
-0.211759
-0.21043
-0.207331
-0.202121
-0.194637
-0.184939
-0.173662
-0.212872
-0.216592
-0.217611
-0.217698
-0.21674
-0.214158
-0.20952
-0.202572
-0.193039
-0.181057
-0.222075
-0.22439
-0.224962
-0.225028
-0.224354
-0.222284
-0.218264
-0.21189
-0.202541
-0.190149
-0.232425
-0.233077
-0.23287
-0.232576
-0.231902
-0.230116
-0.226542
-0.220568
-0.21154
-0.19806
-0.243214
-0.242051
-0.240733
-0.23966
-0.238548
-0.236653
-0.233147
-0.227248
-0.218649
-0.203574
-0.254253
-0.251212
-0.248483
-0.246256
-0.244285
-0.241869
-0.237971
-0.231559
-0.223106
-0.206531
-0.265889
-0.260908
-0.256581
-0.252944
-0.249823
-0.246365
-0.241422
-0.233836
-0.224623
-0.207119
-0.278833
-0.271787
-0.265776
-0.26059
-0.255899
-0.250673
-0.24363
-0.233961
-0.222472
-0.204797
-0.2939
-0.284563
-0.276802
-0.26983
-0.262951
-0.254885
-0.244302
-0.230987
-0.214945
-0.19738
-0.157065
-0.143199
-0.128058
-0.112044
-0.0954417
-0.0786673
-0.0620783
-0.046074
-0.0309993
-0.0171848
-0.00491715
0.00556377
0.0140656
0.0204413
0.0245825
0.0264124
0.025843
0.0229269
0.0169259
0.0104024
-0.16284
-0.148909
-0.133646
-0.117555
-0.100529
-0.0835903
-0.0667832
-0.0505126
-0.0351596
-0.0210637
-0.00852008
0.00222514
0.0109775
0.017592
0.0219655
0.0240364
0.023721
0.0211433
0.0155124
0.00954346
-0.173465
-0.15875
-0.143149
-0.126817
-0.109774
-0.0924306
-0.0751872
-0.0584545
-0.0426199
-0.0280364
-0.0150118
-0.00380071
0.00539971
0.0124485
0.0172527
0.0197767
0.0199502
0.017986
0.013123
0.00794917
-0.184319
-0.170884
-0.154788
-0.138114
-0.120869
-0.103201
-0.085521
-0.0682848
-0.0519113
-0.0367718
-0.0231876
-0.0114223
-0.00167521
0.00591875
0.0112808
0.0144053
0.0152474
0.0140871
0.0102873
0.00609773
-0.194586
-0.18248
-0.1661
-0.149126
-0.131784
-0.113956
-0.0959696
-0.0783301
-0.0615019
-0.0458773
-0.0317869
-0.0195008
-0.00921683
-0.00106317
0.00489984
0.00868862
0.0103028
0.0100285
0.00745922
0.00429915
-0.201954
-0.191287
-0.175047
-0.157985
-0.140738
-0.122993
-0.104952
-0.0871406
-0.0700689
-0.0541509
-0.0397232
-0.0270575
-0.0163452
-0.0077091
-0.00118669
0.00324199
0.0056408
0.00622952
0.00490668
0.00270984
-0.205536
-0.195669
-0.179912
-0.163193
-0.146337
-0.128954
-0.111193
-0.0935616
-0.0765775
-0.0606673
-0.0461711
-0.0333589
-0.0224105
-0.0134471
-0.00648145
-0.00151155
0.00160063
0.00295345
0.00276442
0.00140191
-0.205175
-0.195042
-0.179893
-0.164002
-0.147837
-0.131114
-0.114021
-0.0970008
-0.0805234
-0.0650099
-0.0507911
-0.0381278
-0.0271833
-0.0180846
-0.0108255
-0.0054414
-0.00172585
0.000274303
0.00105404
0.000395464
-0.201256
-0.190637
-0.17639
-0.161339
-0.145947
-0.130214
-0.114204
-0.0981732
-0.0825335
-0.0677073
-0.0540188
-0.0417148
-0.0309399
-0.0218362
-0.01439
-0.00868737
-0.00446969
-0.00192004
-0.000330397
-0.000367165
-0.193019
-0.183133
-0.16969
-0.15475
-0.139886
-0.125262
-0.110543
-0.0957488
-0.0812257
-0.0673822
-0.0545208
-0.0428768
-0.0325797
-0.0237811
-0.0164526
-0.0107206
-0.00628614
-0.00343799
-0.00131951
-0.000906394
-0.167508
-0.166998
-0.155023
-0.13994
-0.125742
-0.112518
-0.0994526
-0.0863136
-0.0733912
-0.0610882
-0.0496784
-0.0393565
-0.0302057
-0.0223618
-0.0157682
-0.0105777
-0.00645895
-0.00378351
-0.00160833
-0.00112311
-0.140877
-0.144903
-0.134642
-0.12019
-0.107196
-0.0958965
-0.085038
-0.0740653
-0.0631761
-0.0527728
-0.0431181
-0.0343743
-0.0265916
-0.0198909
-0.0142091
-0.00971572
-0.00607822
-0.00371692
-0.00166337
-0.00122858
-0.11504
-0.121272
-0.113387
-0.100927
-0.0898073
-0.0805016
-0.0717039
-0.0627231
-0.0536865
-0.044986
-0.0368815
-0.0295236
-0.0229461
-0.0172635
-0.0124101
-0.00856847
-0.00541004
-0.00338807
-0.00153182
-0.00122463
-0.0901445
-0.0978071
-0.09251
-0.0825409
-0.0734613
-0.0659737
-0.0589633
-0.0517454
-0.0443881
-0.0372442
-0.0305601
-0.0244797
-0.0190274
-0.0143126
-0.0102668
-0.00708158
-0.00443558
-0.00280531
-0.00123309
-0.00114321
-0.066701
-0.0754234
-0.072556
-0.0650911
-0.0580398
-0.0522506
-0.0468531
-0.0412346
-0.0354198
-0.0297112
-0.0243346
-0.0194305
-0.0150211
-0.0112138
-0.00794002
-0.00539824
-0.00327715
-0.00206892
-0.000836117
-0.00101876
-0.0452233
-0.0546063
-0.0538367
-0.048702
-0.0435887
-0.0393943
-0.0354671
-0.0312924
-0.0268742
-0.0224705
-0.018285
-0.0144559
-0.0110066
-0.00804503
-0.00550424
-0.00358744
-0.00199387
-0.0012253
-0.000367199
-0.000861218
-0.0258001
-0.0355133
-0.0364986
-0.0334577
-0.030139
-0.0274191
-0.0248255
-0.0219465
-0.0187842
-0.0155608
-0.0124586
-0.00961204
-0.00704706
-0.0048731
-0.00302556
-0.001711
-0.000638953
-0.000316648
0.000146643
-0.000684271
-0.00830799
-0.0181618
-0.0206019
-0.0193996
-0.0177012
-0.016322
-0.0149312
-0.0132134
-0.0111784
-0.00902044
-0.00690182
-0.00495241
-0.00320034
-0.00175711
-0.000561127
0.000178664
0.000743012
0.000621969
0.000683034
-0.00049762
0.007368
-0.00251798
-0.00615534
-0.00654089
-0.00627824
-0.00610143
-0.0057892
-0.00510999
-0.00408435
-0.00288467
-0.00165563
-0.000522146
0.000485714
0.00125443
0.00184238
0.00203893
0.00211583
0.0015624
0.00122427
-0.000308325
0.0213293
0.0114866
0.00686906
0.00512547
0.00413172
0.00324233
0.00259433
0.00234909
0.0024749
0.00281692
0.0032456
0.00364085
0.00397112
0.00412118
0.00414624
0.00383459
0.00344975
0.00248177
0.001756
-0.000121875
0.0336867
0.0239359
0.0185163
0.0156176
0.0135347
0.0117096
0.0102142
0.00915151
0.00848002
0.00805925
0.00777259
0.00750445
0.00722225
0.00680946
0.00631836
0.00553664
0.00472045
0.00336149
0.00226662
5.74463e-05
0.0445444
0.0349109
0.0288348
0.0249588
0.0219401
0.0193026
0.0170666
0.0152874
0.0139151
0.0128214
0.0119008
0.0110418
0.0102111
0.00929143
0.00833235
0.00712138
0.0059081
0.00418649
0.00274676
0.000226248
0.0539905
0.0444841
0.0378726
0.0331757
0.0293608
0.0260258
0.0231501
0.0207495
0.0187675
0.0170863
0.01561
0.0142307
0.0129148
0.0115443
0.0101667
0.00856949
0.00699658
0.0049446
0.00318886
0.000381813
0.0621008
0.0527212
0.045676
0.040296
0.0358116
0.0318857
0.0284649
0.0255327
0.0230275
0.0208406
0.018884
0.0170533
0.0153146
0.0135495
0.0118038
0.00986532
0.00797288
0.00562597
0.00358684
0.000521956
0.0689414
0.0596809
0.0522875
0.0463467
0.0413079
0.0368898
0.0330128
0.0296341
0.0266881
0.0240738
0.02171
0.0194953
0.0173954
0.0152922
0.0132297
0.0109963
0.00882654
0.00622272
0.00393582
0.000644922
0.0745688
0.0654133
0.0577446
0.0513524
0.0458646
0.0410461
0.0367967
0.0330523
0.0297442
0.026778
0.024078
0.0215453
0.0191455
0.0167605
0.0144331
0.0119524
0.00954924
0.00672861
0.00423189
0.000749314
0.0790278
0.0699583
0.0620773
0.0553335
0.0494944
0.044362
0.0398196
0.0357867
0.0321925
0.0289474
0.0259805
0.0231946
0.0205555
0.0179452
0.0154054
0.0127259
0.0101345
0.00713877
0.00447204
0.000834033
0.0823528
0.0733453
0.0653069
0.0583037
0.0522062
0.0468425
0.0420836
0.037837
0.0340301
0.0305775
0.0274116
0.0244368
0.0216187
0.0188394
0.0161399
0.0133109
0.0105773
0.00744951
0.00465397
0.000898525
0.0845871
0.0756088
0.067458
0.060279
0.0540094
0.0484931
0.0435916
0.0392037
0.035256
0.0316658
0.0283678
0.0252674
0.02233
0.0194383
0.0166321
0.0137034
0.010874
0.00765887
0.00477463
0.000945306
0.0857581
0.076777
0.0685545
0.0612775
0.0549162
0.0493211
0.0443474
0.0398885
0.0358699
0.0322108
0.0288464
0.0256836
0.0226859
0.0197391
0.0168775
0.0139022
0.0110193
0.00776978
0.00482558
0.000986303
0.0712415
0.0307314
-0.00545309
-0.0372148
-0.0646984
-0.0881072
-0.108066
-0.124908
-0.138995
-0.156296
0.0952778
0.0565654
0.0219865
-0.00860581
-0.0351942
-0.0582604
-0.0774826
-0.0948975
-0.108194
-0.126407
0.1166
0.0799332
0.0471744
0.0179077
-0.00758354
-0.0303086
-0.0491145
-0.0672361
-0.0809952
-0.0986533
0.13544
0.100569
0.0693093
0.0410799
0.0164092
-0.00608334
-0.0248028
-0.0430634
-0.0571977
-0.0735944
0.152048
0.118682
0.0886418
0.0612809
0.037265
0.015155
-0.00337609
-0.0211207
-0.035251
-0.0505087
0.166704
0.134652
0.10568
0.0791614
0.0557892
0.0342803
0.0160885
-0.000983034
-0.0150762
-0.0296243
0.179669
0.148797
0.12079
0.0951015
0.0723596
0.0515049
0.0336363
0.0170832
0.00303124
-0.0109838
0.191151
0.161343
0.134205
0.109294
0.0871241
0.0668564
0.049266
0.0331234
0.0192263
0.00571051
0.201315
0.172458
0.146098
0.121891
0.100231
0.0804801
0.063177
0.0474167
0.0337505
0.020671
0.210289
0.182281
0.156615
0.13304
0.111848
0.0925643
0.0755633
0.0601505
0.0467101
0.0339956
0.218183
0.190929
0.165885
0.142874
0.122115
0.10325
0.0865383
0.0714232
0.0581812
0.0457828
0.225087
0.198501
0.174011
0.151501
0.131136
0.11264
0.0961892
0.0813292
0.0682626
0.056139
0.231085
0.205084
0.18108
0.15901
0.138997
0.120822
0.104603
0.0899626
0.0770471
0.0651535
0.236216
0.210738
0.187159
0.165472
0.145771
0.127874
0.111856
0.0974009
0.0846086
0.0728987
0.24053
0.215496
0.192298
0.170949
0.15152
0.133859
0.11801
0.103706
0.0910084
0.0794378
0.244052
0.219406
0.196545
0.175489
0.156292
0.138828
0.123118
0.108931
0.0962989
0.0848252
0.246827
0.222512
0.19994
0.17913
0.160127
0.142822
0.12722
0.113116
0.100522
0.0891046
0.248884
0.224845
0.202513
0.181906
0.16306
0.145877
0.130351
0.116297
0.103712
0.0923101
0.250234
0.226426
0.204294
0.183853
0.16513
0.148038
0.13256
0.118527
0.105923
0.0944926
0.25083
0.227196
0.205212
0.184898
0.166269
0.149242
0.133795
0.119771
0.107143
0.0956698
0.650046
0.649429
0.640363
0.624184
0.601666
0.57158
0.530405
0.473428
0.400811
0.353422
0.592468
0.585532
0.567404
0.543766
0.514636
0.477035
0.426654
0.358853
0.274156
0.218441
0.531904
0.517994
0.492812
0.462959
0.427402
0.38222
0.322906
0.24516
0.149457
0.087356
0.464623
0.445757
0.416285
0.381875
0.340703
0.288545
0.221119
0.13494
0.0297151
-0.0358579
0.395435
0.372572
0.339896
0.30176
0.255757
0.197543
0.123028
0.0301173
-0.0814563
-0.147629
0.327719
0.301214
0.265794
0.224433
0.1743
0.111071
0.0307494
-0.0683929
-0.178796
-0.245938
0.262743
0.233042
0.195417
0.151473
0.0980313
0.0309607
-0.0534364
-0.155199
-0.262776
-0.329062
0.201331
0.168981
0.129794
0.0840818
0.0283202
-0.0412618
-0.127461
-0.229133
-0.332194
-0.395592
0.144
0.109714
0.0699282
0.0230313
-0.0341165
-0.104579
-0.190545
-0.289542
-0.385621
-0.444811
0.08989
0.0560041
0.0161992
-0.031139
-0.0885335
-0.158451
-0.242236
-0.335856
-0.422544
-0.476905
1.04042
1.05432
1.07081
1.08995
1.1117
1.13577
1.16139
1.18634
1.20816
1.23398
1.03411
1.04699
1.06271
1.08103
1.10174
1.12454
1.1486
1.17165
1.19116
1.21526
1.02138
1.03226
1.04645
1.06316
1.08185
1.10212
1.12308
1.14231
1.15744
1.17788
1.00203
1.01003
1.02203
1.03637
1.05209
1.06867
1.08507
1.09869
1.10741
1.12249
0.975842
0.980234
0.989456
1.00076
1.01264
1.02445
1.03497
1.04134
1.04176
1.05001
0.942602
0.942749
0.948709
0.956402
0.963709
0.969824
0.973311
0.971006
0.961453
0.961674
0.902272
0.897751
0.90018
0.903808
0.905875
0.905466
0.900927
0.88875
0.867801
0.859123
0.85387
0.844563
0.843737
0.843257
0.839705
0.832206
0.818924
0.79599
0.762543
0.744424
0.798202
0.784423
0.780777
0.775774
0.766039
0.751024
0.728581
0.694406
0.647878
0.619922
0.729993
0.717645
0.712896
0.70293
0.68654
0.663723
0.63181
0.586133
0.52638
0.48847
0.99862
0.995893
0.993606
0.991656
0.989874
0.988263
0.986904
0.985878
0.985254
0.985094
0.985473
0.986471
0.988174
0.990676
0.994082
0.998504
1.00406
1.01089
1.01912
1.02887
0.998561
0.995758
0.993369
0.991285
0.989363
0.987612
0.986109
0.98493
0.98414
0.983801
0.983987
0.98477
0.986231
0.988456
0.991543
0.995595
1.00073
1.00704
1.01468
1.02367
0.998476
0.995486
0.992857
0.990509
0.988319
0.986295
0.984506
0.98302
0.981896
0.981192
0.980984
0.981344
0.982323
0.983991
0.986435
0.989741
0.994003
0.999291
1.00571
1.01315
0.998339
0.99505
0.992058
0.98932
0.986734
0.984303
0.982084
0.980138
0.978512
0.977248
0.97644
0.976142
0.976395
0.977228
0.978698
0.980863
0.983786
0.987481
0.992008
0.997041
0.998145
0.994444
0.990965
0.987708
0.984594
0.981618
0.978821
0.976248
0.973941
0.971954
0.97035
0.969147
0.96838
0.968076
0.96824
0.968864
0.969964
0.971458
0.97338
0.975071
0.997888
0.993655
0.989567
0.985664
0.981891
0.978234
0.974717
0.971374
0.968182
0.965318
0.962727
0.960386
0.95831
0.9565
0.954952
0.953591
0.952367
0.951031
0.949604
0.946936
0.997563
0.99267
0.987854
0.983183
0.978622
0.974145
0.969752
0.965391
0.961319
0.957409
0.953599
0.949879
0.946238
0.94262
0.938965
0.935103
0.93096
0.92608
0.920604
0.912579
0.997169
0.991487
0.985809
0.980236
0.974756
0.969284
0.963806
0.958566
0.953398
0.948206
0.942968
0.93765
0.932195
0.926476
0.920381
0.913597
0.90602
0.896789
0.886259
0.871222
0.996738
0.990198
0.983606
0.976928
0.970312
0.963821
0.957448
0.951025
0.944498
0.937831
0.930976
0.923841
0.916323
0.908204
0.899337
0.889217
0.877803
0.863634
0.847608
0.82416
0.996127
0.988367
0.980597
0.972973
0.96536
0.957709
0.949985
0.942132
0.934088
0.925769
0.917079
0.907857
0.89794
0.88698
0.874762
0.860424
0.84399
0.822867
0.799305
0.763873
0.995725
0.987176
0.978604
0.969985
0.961268
0.952417
0.943395
0.934134
0.924543
0.914501
0.903871
0.892442
0.879999
0.866119
0.850496
0.832175
0.810853
0.783837
0.750911
0.702803
0.995341
0.986023
0.976635
0.967122
0.957468
0.94764
0.937578
0.927196
0.916387
0.905014
0.892927
0.879896
0.865693
0.849885
0.832163
0.811632
0.787963
0.759282
0.725713
0.684872
0.994959
0.984884
0.974686
0.964312
0.953761
0.942998
0.931948
0.92051
0.908573
0.895994
0.882619
0.868217
0.852567
0.83527
0.816042
0.794173
0.769409
0.740641
0.707918
0.669896
0.99458
0.983754
0.972754
0.961523
0.950079
0.93839
0.92637
0.913912
0.900898
0.887185
0.872621
0.856985
0.84007
0.821525
0.801107
0.778266
0.752821
0.723982
0.691774
0.654967
0.994204
0.98264
0.970852
0.958777
0.94646
0.933872
0.920925
0.907502
0.893485
0.878734
0.863103
0.846386
0.828397
0.808834
0.787496
0.763943
0.738055
0.709186
0.677488
0.64186
0.993836
0.981552
0.969001
0.95611
0.94295
0.929506
0.915685
0.901365
0.886428
0.870742
0.854168
0.836523
0.817639
0.79726
0.775225
0.751173
0.725041
0.696294
0.665189
0.630726
0.993479
0.980501
0.96722
0.95355
0.939589
0.925337
0.910699
0.895552
0.87978
0.863258
0.84586
0.82742
0.807797
0.786769
0.764213
0.73983
0.713605
0.685094
0.654587
0.621182
0.993136
0.979497
0.965525
0.95112
0.936406
0.921399
0.906006
0.890104
0.873579
0.856315
0.8382
0.819087
0.798853
0.777314
0.754373
0.729786
0.703568
0.675351
0.645416
0.612974
0.992812
0.978549
0.96393
0.948839
0.933424
0.917719
0.901636
0.885049
0.867851
0.849935
0.8312
0.811519
0.790786
0.768847
0.745627
0.72093
0.694782
0.666888
0.637499
0.605944
0.992508
0.977663
0.962445
0.946721
0.930662
0.914319
0.897609
0.880409
0.862615
0.844128
0.824861
0.804703
0.783564
0.761316
0.7379
0.713159
0.687126
0.659564
0.630694
0.599958
0.992227
0.976845
0.961079
0.944779
0.928134
0.911214
0.893942
0.876197
0.857878
0.838898
0.819177
0.798622
0.777155
0.754669
0.73112
0.706382
0.680491
0.653261
0.624878
0.59489
0.991971
0.976099
0.959838
0.94302
0.92585
0.908415
0.890644
0.872419
0.853644
0.834239
0.814135
0.793251
0.77152
0.748855
0.72522
0.700519
0.674783
0.647874
0.61994
0.590628
0.991741
0.975429
0.958728
0.94145
0.923817
0.905929
0.88772
0.869078
0.84991
0.830144
0.809719
0.788564
0.766623
0.743825
0.72014
0.695496
0.669918
0.64331
0.615784
0.587076
0.991538
0.974838
0.957752
0.940075
0.92204
0.903758
0.885172
0.866173
0.846671
0.826601
0.805909
0.784535
0.762429
0.739534
0.715824
0.691248
0.665824
0.639489
0.612327
0.58415
0.991362
0.974328
0.956912
0.938897
0.92052
0.901903
0.882998
0.863698
0.843918
0.823598
0.802688
0.781138
0.758904
0.73594
0.712222
0.687716
0.662434
0.636344
0.609498
0.581778
0.991215
0.973899
0.956211
0.937918
0.919259
0.900365
0.881196
0.86165
0.841644
0.821121
0.800037
0.778349
0.756018
0.733005
0.70929
0.684852
0.659697
0.633815
0.607237
0.579899
0.991096
0.973554
0.955652
0.937141
0.918256
0.899141
0.879762
0.860021
0.839837
0.819157
0.797939
0.776146
0.753742
0.730697
0.706991
0.682613
0.657565
0.631854
0.605495
0.578465
0.991011
0.973304
0.955247
0.936569
0.917509
0.898225
0.87869
0.858806
0.838491
0.817695
0.796379
0.774511
0.752056
0.72899
0.705295
0.680965
0.656002
0.630425
0.604234
0.577437
0.990973
0.97318
0.955031
0.936224
0.917027
0.89762
0.877979
0.858
0.837599
0.816726
0.795346
0.773429
0.750942
0.727864
0.704177
0.679882
0.654978
0.629495
0.603426
0.576796
0.990855
0.973104
0.954985
0.936101
0.916807
0.897325
0.877628
0.8576
0.837156
0.816244
0.794832
0.772891
0.750388
0.727304
0.703622
0.679346
0.654472
0.629038
0.603039
0.576523
0.645969
0.586787
0.529076
0.467008
0.402585
0.339544
0.278985
0.221116
0.166356
0.116332
0.639047
0.577839
0.519086
0.461439
0.402081
0.343598
0.287573
0.234124
0.183913
0.137903
0.627284
0.568885
0.5113
0.457726
0.403422
0.349107
0.296835
0.247112
0.200338
0.156898
0.615191
0.560951
0.505551
0.454891
0.404731
0.354183
0.305154
0.258519
0.214563
0.173562
0.604266
0.553841
0.501174
0.452951
0.406154
0.358971
0.3128
0.268765
0.227226
0.18831
0.594672
0.547513
0.49777
0.451783
0.407688
0.363403
0.319769
0.277969
0.238483
0.201368
0.586333
0.54198
0.495085
0.451205
0.409315
0.367474
0.326077
0.286223
0.248493
0.212941
0.579168
0.537239
0.492965
0.451045
0.411
0.371197
0.331752
0.293606
0.257393
0.223204
0.573071
0.533236
0.491296
0.451164
0.412691
0.374589
0.336828
0.300183
0.265293
0.232296
0.567921
0.529891
0.489991
0.451456
0.414336
0.377658
0.341341
0.306012
0.27228
0.240329
0.563601
0.527121
0.488976
0.451843
0.41589
0.380408
0.345322
0.311142
0.278426
0.247393
0.560002
0.524842
0.488189
0.452265
0.417312
0.38284
0.348797
0.315613
0.283791
0.253567
0.557029
0.522977
0.487575
0.452675
0.418574
0.384949
0.351789
0.319459
0.288414
0.258921
0.554596
0.521456
0.487084
0.453038
0.41965
0.386734
0.354315
0.322712
0.292317
0.263385
0.552632
0.520221
0.486676
0.453323
0.42052
0.388189
0.356389
0.325406
0.295598
0.267234
0.551077
0.51922
0.486315
0.453505
0.421168
0.38931
0.35802
0.327558
0.298249
0.270344
0.549879
0.518414
0.485976
0.453567
0.421583
0.390095
0.359213
0.329177
0.300283
0.272767
0.548996
0.517763
0.485628
0.45349
0.421755
0.390542
0.359978
0.330283
0.301726
0.274529
0.548411
0.517242
0.485226
0.45321
0.42162
0.390599
0.360273
0.330847
0.30257
0.275648
0.548172
0.51696
0.484887
0.452813
0.421216
0.390265
0.360073
0.330821
0.302735
0.276015
)
;

boundaryField
{
    bottom
    {
        type            symmetryPlane;
    }
    right
    {
        type            fixedValue;
        value           uniform 0;
    }
    top
    {
        type            symmetryPlane;
    }
    left
    {
        type            fixedValue;
        value           uniform 1;
    }
    cylinder
    {
        type            zeroGradient;
    }
    defaultFaces
    {
        type            empty;
    }
}


// ************************************************************************* //
