/*--------------------------------*- C++ -*----------------------------------*\
| =========                 |                                                 |
| \\      /  F ield         | OpenFOAM: The Open Source CFD Toolbox           |
|  \\    /   O peration     | Version:  4.1                                   |
|   \\  /    A nd           | Web:      www.OpenFOAM.org                      |
|    \\/     M anipulation  |                                                 |
\*---------------------------------------------------------------------------*/
FoamFile
{
    version     2.0;
    format      ascii;
    class       surfaceScalarField;
    location    "6.2";
    object      phi;
}
// * * * * * * * * * * * * * * * * * * * * * * * * * * * * * * * * * * * * * //

dimensions      [0 3 -1 0 0 0 0];

internalField   nonuniform List<scalar> 
3890
(
0.000482526
0.00172603
-0.00220856
0.0029567
-0.00137768
-0.00109649
0.00808812
-0.00884916
0.00371774
0.0159997
-0.0190858
0.0111742
0.026099
-0.0302996
0.0202002
0.0373213
-0.040873
0.0296507
0.0485549
-0.0497598
0.0385263
0.05896
-0.0566218
0.0462167
0.0679083
-0.0613812
0.0524328
-0.0644035
0.0573863
0.0749256
0.000783813
0.000942219
0.00423608
-0.00482995
0.0109204
-0.0155335
0.0204015
-0.0285669
0.0313847
-0.0412827
0.0424222
-0.0519105
0.0524619
-0.0597995
0.0609499
-0.0651098
0.0678315
-0.0682628
-0.0701098
0.0735379
0.00118608
-0.000243865
0.0057829
-0.00942677
0.0139381
-0.0236886
0.024348
-0.0389768
0.0351486
-0.0520833
0.0449283
-0.0616902
0.0530341
-0.0679053
0.0594126
-0.0714883
0.0644193
-0.0732696
-0.0741136
0.0684231
0.00167716
-0.00192102
0.00747035
-0.01522
0.0166884
-0.0329067
0.0271219
-0.0494103
0.0367888
-0.0617502
0.044722
-0.0696234
0.0508172
-0.0740004
0.0554278
-0.0760989
0.0590496
-0.0768914
-0.0771175
0.0620535
0.0022392
-0.00416023
0.00909627
-0.022077
0.0187028
-0.0425133
0.0283066
-0.0590141
0.0362999
-0.0697436
0.042322
-0.0756454
0.0467023
-0.0783808
0.0499703
-0.0793669
0.0526093
-0.0795303
-0.0794402
0.054932
0.0028326
-0.00699283
0.0104154
-0.0296598
0.0196734
-0.0517713
0.0278901
-0.0672308
0.0340858
-0.0759393
0.0384168
-0.0799764
0.0414446
-0.0814086
0.0437194
-0.0816417
0.0456377
-0.0814487
-0.0811784
0.0473759
0.00339366
-0.0103865
0.011217
-0.0374831
0.0195396
-0.0600939
0.0261378
-0.073829
0.030656
-0.0804575
0.0335861
-0.0829065
0.0355601
-0.0833826
0.0370585
-0.08314
0.0383599
-0.0827501
-0.082403
0.0395845
0.00384077
-0.0142273
0.0113858
-0.0450282
0.0184267
-0.0671348
0.0234039
-0.0788062
0.026456
-0.0835096
0.028246
-0.0846964
0.0293725
-0.0845092
0.0302124
-0.0839798
0.0309516
-0.0834894
-0.0831026
0.0316512
0.00409937
-0.0183266
0.0109304
-0.0518592
0.0165482
-0.0727526
0.0200209
-0.0822789
0.0218249
-0.0853137
0.0226726
-0.0855441
0.0230784
-0.084915
0.0233167
-0.0842182
0.0234974
-0.08367
-0.0832613
0.023656
0.00412769
-0.0224543
0.00996316
-0.0576947
0.0141373
-0.0769267
0.0162612
-0.0844028
0.0170032
-0.0860557
0.0170442
-0.0855851
0.0167986
-0.0846694
0.0164576
-0.0838771
0.0160862
-0.0832987
0.0156955
-0.0828705
-0.000945981
0.000945981
-0.00271004
0.00176406
-0.00481028
0.00210024
-0.0069975
0.00218723
-0.00912605
0.00212855
-0.0111021
0.00197604
-0.012863
0.00176087
-0.0143725
0.00150959
-0.0156277
0.00125516
0.00104673
-0.0166744
-0.000824889
0.00177087
-0.00237405
0.00331322
-0.0042095
0.00393569
-0.00608426
0.00406198
-0.00784717
0.00389146
-0.00939468
0.00352355
-0.0106499
0.00301611
-0.0115602
0.00241982
-0.0121014
0.00179645
0.00125157
-0.0123063
-0.000613308
0.00238418
-0.00178485
0.00448476
-0.00313909
0.00528993
-0.0044422
0.00536509
-0.0055383
0.00498756
-0.00631107
0.00429632
-0.00666296
0.003368
-0.00651238
0.00226924
-0.00580391
0.00108799
-4.82028e-05
-0.00450414
-0.000368706
0.00275289
-0.00107577
0.00519182
-0.00181837
0.00603254
-0.0023795
0.00592622
-0.00260154
0.0052096
-0.00235909
0.00405387
-0.00154154
0.00255044
-4.10896e-05
0.000768793
0.00224845
-0.00120155
-0.00316772
0.00536796
-0.000148781
0.00290167
-0.00039082
0.00543386
-0.000483534
0.00612525
-0.000222723
0.00566541
0.000558124
0.00442875
0.00199421
0.00261779
0.00420436
0.000340292
0.00729186
-0.00231872
0.0113155
-0.00522518
-0.00844672
0.0165945
6.94336e-06
0.00289472
0.000167451
0.00527336
0.000701046
0.00559165
0.00181788
0.00454857
0.00370249
0.00254414
0.00651179
-0.000191506
0.0103717
-0.00351964
0.0153583
-0.0073053
0.0214044
-0.0112712
-0.016019
0.0289766
9.05634e-05
0.00280416
0.000579841
0.00478408
0.00171786
0.00445364
0.00374706
0.00251937
0.00689085
-0.000599658
0.0113309
-0.00463152
0.0171467
-0.00933546
0.0243294
-0.014488
0.0326188
-0.0195606
-0.025765
0.0423648
0.000131299
0.00267286
0.000928423
0.00398695
0.002725
0.00265706
0.00583104
-0.00058667
0.0105021
-0.00527076
0.0168615
-0.0109909
0.0248511
-0.017325
0.0342274
-0.0238644
0.0445851
-0.0299184
-0.0368723
0.0556925
0.000179422
0.00249344
0.00135509
0.00281129
0.00398563
2.65227e-05
0.00845214
-0.00505318
0.0149443
-0.0117629
0.0233735
-0.0194201
0.0333637
-0.0273152
0.0443481
-0.0348487
0.0558573
-0.0414276
-0.0478479
0.0668329
0.00028488
0.00199968
0.00574394
0.0118649
0.0203023
0.0305329
0.0417439
0.0531119
0.0641171
0.0736555
-0.0167764
0.000102016
-0.0166397
-0.000136706
-0.0162424
-0.000397355
-0.0155766
-0.000665773
-0.0146402
-0.000936369
-0.0134337
-0.00120651
-0.0119672
-0.0014665
-0.0102494
-0.00171785
-0.00829217
-0.00195722
-0.00611045
-0.00218171
-0.00371522
-0.00239524
-0.00113152
-0.00258369
0.00162079
-0.00275232
0.00452571
-0.00290492
0.00756666
-0.00304095
0.0107302
-0.00316355
0.0140091
-0.00327889
0.0174085
-0.00339941
0.0209303
-0.00352175
-0.00369059
-0.0121945
-9.7441e-06
-0.011897
-0.000434194
-0.0113555
-0.000938858
-0.0105643
-0.00145704
-0.00952412
-0.00197653
-0.00822775
-0.00250287
-0.00669132
-0.00300293
-0.00492096
-0.00348821
-0.00292676
-0.00395142
-0.000722625
-0.00438585
0.00166161
-0.00477948
0.00422117
-0.00514325
0.00693742
-0.00546857
0.00978845
-0.00575595
0.012756
-0.00600849
0.0158242
-0.00623179
0.0189806
-0.00643531
0.0222205
-0.00663927
0.0255438
-0.00684508
-0.00712144
-0.0040353
-0.000478579
-0.00340606
-0.00106343
-0.00258126
-0.00176366
-0.00154319
-0.0024951
-0.000289509
-0.00323022
0.00114793
-0.00394031
0.00279542
-0.00465042
0.00464522
-0.00533801
0.00668608
-0.00599228
0.00890355
-0.00660332
0.0112867
-0.00716265
0.0138111
-0.00766766
0.0164575
-0.00811496
0.0192052
-0.00850362
0.0220345
-0.00883778
0.024926
-0.00912329
0.0278638
-0.00937312
0.0308285
-0.00960401
0.0338149
-0.00983148
-0.0101284
0.00634933
-0.00145994
0.0073936
-0.0021077
0.00857322
-0.00294329
0.00991227
-0.00383415
0.0114078
-0.00472578
0.0130716
-0.00560411
0.0148914
-0.00647022
0.0168633
-0.00730988
0.0189785
-0.00810747
0.0212248
-0.00884958
0.0235876
-0.00952554
0.0260478
-0.0101278
0.0285855
-0.0106526
0.0311794
-0.0110976
0.0338107
-0.011469
0.0364561
-0.0117688
0.0391025
-0.0120195
0.0417174
-0.0122189
0.0443006
-0.0124146
-0.0126301
0.0180456
-0.00291108
0.0195112
-0.00357328
0.0210646
-0.00449666
0.0227244
-0.00549393
0.0244891
-0.00649049
0.0263601
-0.00747517
0.0283342
-0.00844434
0.0304064
-0.00938208
0.0325683
-0.0102693
0.0348075
-0.0110888
0.0371095
-0.0118275
0.0394559
-0.0124742
0.0418286
-0.0130254
0.0442065
-0.0134755
0.0465742
-0.0138367
0.0489064
-0.0141009
0.0511975
-0.0143107
0.0534069
-0.0144283
0.0555508
-0.0145586
-0.0146192
0.0307499
-0.00468437
0.0325101
-0.00533344
0.034328
-0.00631457
0.0362049
-0.00737084
0.0381361
-0.0084217
0.040124
-0.00946312
0.0421662
-0.0104865
0.0442547
-0.0114706
0.0463793
-0.0123939
0.0485268
-0.0132363
0.0506827
-0.0139834
0.0528295
-0.0146209
0.0549521
-0.015148
0.057031
-0.0155544
0.0590572
-0.0158629
0.0610067
-0.0160505
0.0628841
-0.016188
0.0646475
-0.0161917
0.0663319
-0.016243
-0.0161188
0.0441637
-0.00648329
0.0459931
-0.00716276
0.047854
-0.00817553
0.0497381
-0.0092549
0.0516491
-0.0103327
0.0535864
-0.0114004
0.0555398
-0.0124399
0.057496
-0.0134267
0.0594419
-0.0143398
0.0613635
-0.0151579
0.0632473
-0.0158673
0.0650783
-0.0164519
0.0668464
-0.0169162
0.0685373
-0.0172452
0.0701492
-0.0174748
0.0716643
-0.0175657
0.0730958
-0.0176195
0.0744087
-0.0175046
0.0756487
-0.017483
-0.0171885
0.0572423
-0.00803319
0.0588965
-0.00881696
0.0605643
-0.00984328
0.0622424
-0.0109331
0.0639421
-0.0120323
0.0656503
-0.0131087
0.0673452
-0.0141349
0.0690089
-0.0150905
0.070628
-0.0159589
0.07219
-0.0167199
0.0736859
-0.0173631
0.0751067
-0.0178728
0.0764506
-0.0182601
0.0777115
-0.0185061
0.0788953
-0.0186587
0.0799925
-0.0186629
0.0810202
-0.0186472
0.0819526
-0.018437
0.0828346
-0.018365
-0.0179495
0.0680739
-0.00927418
0.0694662
-0.0102093
0.0708463
-0.0112234
0.0722269
-0.0123136
0.0736113
-0.0134167
0.0749753
-0.0144726
0.0762969
-0.0154565
0.0775637
-0.0163573
0.0787697
-0.0171649
0.0799117
-0.0178619
0.0809908
-0.0184422
0.0820081
-0.0188901
0.0829699
-0.0192218
0.0838776
-0.0194138
0.0847406
-0.0195216
0.0855546
-0.0194769
0.0863331
-0.0194256
0.0870563
-0.0191603
0.0877525
-0.0190611
-0.0185676
0.0751251
-0.0107438
0.0763491
-0.0114333
0.0774841
-0.0123583
0.0785567
-0.0133862
0.0795767
-0.0144368
0.0805504
-0.0154463
0.0814801
-0.0163862
0.0823672
-0.0172444
0.0832169
-0.0180146
0.0840356
-0.0186805
0.0848318
-0.0192384
0.0856113
-0.0196697
0.086382
-0.0199925
0.0871455
-0.0201773
0.0879071
-0.0202833
0.0886623
-0.0202321
0.0894134
-0.0201767
0.0901479
-0.0198948
0.090866
-0.0197792
-0.0192145
0.103244
-0.00967646
-0.104311
0.102584
-0.0107732
0.101973
-0.0117474
0.101341
-0.0127544
0.100665
-0.0137614
0.0999363
-0.0147171
0.0991473
-0.0155971
0.0982935
-0.0163906
0.0973744
-0.0170956
0.0963945
-0.0177006
0.0953632
-0.0182071
0.0942919
-0.0185984
0.0931935
-0.0188941
0.0920805
-0.0190643
0.0909636
-0.0191663
0.0898543
-0.0191228
0.0887556
-0.019078
0.0876804
-0.0188197
0.0866137
-0.0187124
-0.0181753
0.106536
-0.00880452
-0.107408
0.105723
-0.00996086
0.10497
-0.0109938
0.104188
-0.0119725
0.103346
-0.0129194
0.102444
-0.0138154
0.101487
-0.0146404
0.100478
-0.0153817
0.0994199
-0.0160372
0.0983177
-0.0165983
0.0971798
-0.0170692
0.0960167
-0.0174353
0.0948384
-0.0177158
0.093656
-0.0178818
0.0924769
-0.0179872
0.0913117
-0.0179576
0.0901612
-0.0179275
0.0890378
-0.0176963
0.0879296
-0.0176042
-0.0171176
0.108002
-0.00796923
-0.108837
0.107168
-0.0091271
0.10635
-0.0101753
0.105509
-0.0111318
0.104617
-0.0120271
0.103667
-0.0128655
0.102664
-0.0136374
0.101613
-0.014331
0.10052
-0.0149436
0.0993891
-0.0154678
0.0982292
-0.0159094
0.0970493
-0.0162554
0.0958581
-0.0165246
0.0946656
-0.0166893
0.0934779
-0.0167996
0.0923051
-0.0167848
0.0911472
-0.0167696
0.0900183
-0.0165673
0.0889054
-0.0164914
-0.0160481
0.108455
-0.00722744
-0.109197
0.107668
-0.00834073
0.10686
-0.00936715
0.106021
-0.0102928
0.105134
-0.0111399
0.104192
-0.0119235
0.103198
-0.0126437
0.102159
-0.0132918
0.10108
-0.0138648
0.0999683
-0.0143558
0.0988299
-0.014771
0.0976734
-0.0150989
0.0965065
-0.0153576
0.0953379
-0.0155207
0.094173
-0.0156347
0.0930212
-0.015633
0.0918825
-0.0156309
0.0907698
-0.0154547
0.0896713
-0.0153928
-0.0149928
0.108421
-0.00657823
-0.10907
0.107706
-0.00762596
0.106946
-0.00860649
0.106141
-0.00948865
0.105288
-0.0102863
0.104381
-0.0110169
0.103424
-0.0116867
0.102422
-0.0122901
0.101382
-0.0128247
0.10031
-0.0132838
0.0992128
-0.0136734
0.098097
-0.0139832
0.0969698
-0.0142303
0.095839
-0.0143899
0.0947095
-0.0145052
0.09359
-0.0145135
0.0924805
-0.0145214
0.0913936
-0.0143678
0.0903187
-0.0143179
-0.0139566
0.108255
-0.00600884
-0.108824
0.107609
-0.00698066
0.106902
-0.00789952
0.106142
-0.00872801
0.105329
-0.00947352
0.104464
-0.0101522
0.10355
-0.0107727
0.102592
-0.011332
0.101596
-0.0118286
0.100568
-0.0122559
0.0995146
-0.0126198
0.098442
-0.0129106
0.0973564
-0.0131447
0.0962651
-0.0132986
0.0951726
-0.0134127
0.0940869
-0.0134278
0.0930084
-0.0134429
0.0919491
-0.0133084
0.0908994
-0.0132682
-0.0129417
0.108126
-0.00550155
-0.108634
0.107536
-0.00639022
0.106875
-0.00723857
0.106154
-0.00800727
0.105379
-0.00869853
0.104553
-0.00932574
0.103678
-0.009898
0.10276
-0.0104138
0.101804
-0.0108725
0.100816
-0.011268
0.0998017
-0.0116057
0.0987679
-0.0118768
0.0977198
-0.0120966
0.0966642
-0.0122431
0.0956051
-0.0123536
0.0945504
-0.0123731
0.0935004
-0.0123929
0.0924665
-0.0122746
0.0914404
-0.0122421
-0.011947
0.108085
-0.00503506
-0.108551
0.107533
-0.00583912
0.106908
-0.00661357
0.106221
-0.00731943
0.105477
-0.00795505
0.104682
-0.00853099
0.10384
-0.00905573
0.102955
-0.00952865
0.102032
-0.0099497
0.101078
-0.0103134
0.100097
-0.0106248
0.0990955
-0.0108756
0.098079
-0.0110801
0.0970536
-0.0112177
0.096023
-0.011323
0.0949948
-0.0113449
0.0939693
-0.0113674
0.0929578
-0.011263
0.0919523
-0.0112367
-0.0109703
0.108124
-0.00459322
-0.108566
0.1076
-0.00531536
0.107003
-0.00601571
0.106341
-0.00665749
0.105622
-0.00723674
0.104853
-0.00776155
0.104037
-0.0082394
0.103178
-0.00867006
0.102282
-0.00905389
0.101355
-0.00938597
0.100401
-0.00967092
0.0994262
-0.00990097
0.0984355
-0.0100894
0.097435
-0.0102171
0.096428
-0.010316
0.095422
-0.0103389
0.0944171
-0.0103626
0.0934245
-0.0102704
0.0924367
-0.0102489
-0.0100092
0.108225
-0.0041665
-0.108651
0.107719
-0.00481017
0.107141
-0.00543769
0.106499
-0.00601539
0.105801
-0.00653816
0.105051
-0.00701212
0.104256
-0.00744367
0.103418
-0.00783269
0.102544
-0.00817972
0.101638
-0.00848034
0.100706
-0.0087388
0.0997533
-0.00894791
0.0987837
-0.00911981
0.0978036
-0.00923701
0.0968161
-0.00932854
0.0958284
-0.00935126
0.0948409
-0.00937497
0.0938642
-0.0092937
0.0928914
-0.00927611
-0.00906151
0.108364
-0.00374875
-0.108782
0.107871
-0.00431717
0.107307
-0.00487376
0.10668
-0.00538822
0.105997
-0.00585491
0.105263
-0.0062785
0.104484
-0.00666434
0.103663
-0.00701229
0.102807
-0.00732296
0.101919
-0.00759238
0.101004
-0.0078244
0.100069
-0.00801244
0.0991165
-0.00816749
0.0981532
-0.00827366
0.0971818
-0.00835716
0.0962095
-0.00837895
0.0952364
-0.00840187
0.0942732
-0.00833053
0.0933132
-0.00831613
-0.00812542
0.108524
-0.00333541
-0.108938
0.108039
-0.00383173
0.107485
-0.00431962
0.106869
-0.0047721
0.106197
-0.00518351
0.105476
-0.00555735
0.10471
-0.0058981
0.103903
-0.00620555
0.10306
-0.0064803
0.102187
-0.00671878
0.101287
-0.00692445
0.100366
-0.00709139
0.0994277
-0.00722938
0.0984782
-0.00732418
0.0975202
-0.00739916
0.0965607
-0.00741946
0.0955998
-0.00744094
0.094648
-0.00737881
0.0936989
-0.00736703
-0.00719927
0.108691
-0.00292332
-0.109103
0.10821
-0.00335065
0.107662
-0.00377209
0.107054
-0.00416407
0.106392
-0.00452114
0.105681
-0.00484597
0.104925
-0.00514228
0.104129
-0.0054098
0.103298
-0.00564904
0.102436
-0.00585688
0.101548
-0.00603635
0.100639
-0.00618218
0.0997122
-0.00630299
0.0987742
-0.00638618
0.0978274
-0.00645229
0.0968786
-0.00647067
0.0959279
-0.00649024
0.0949858
-0.00643676
0.094046
-0.00642718
-0.00628165
0.108854
-0.00251054
-0.109267
0.108375
-0.00287172
0.107832
-0.00322886
0.10723
-0.00356181
0.106574
-0.00386558
0.10587
-0.0041422
0.105123
-0.0043947
0.104336
-0.00462282
0.103514
-0.00482698
0.102661
-0.00500447
0.101783
-0.00515789
0.100883
-0.00528267
0.0999665
-0.00538622
0.099038
-0.00545767
0.0981004
-0.00551465
0.0971605
-0.00553081
0.0962183
-0.00554809
0.0952844
-0.00550286
0.0943524
-0.00549514
-0.00537127
0.109005
-0.00209598
-0.10942
0.108527
-0.00239351
0.107986
-0.00268831
0.107388
-0.0029636
0.106738
-0.00321506
0.10604
-0.00344424
0.105299
-0.00365357
0.104519
-0.00384281
0.103704
-0.00401227
0.102859
-0.00415969
0.101988
-0.00428721
0.101097
-0.00439102
0.100188
-0.00447728
0.0992671
-0.00453689
0.098337
-0.00458457
0.0974045
-0.00459829
0.0964694
-0.00461302
0.0955423
-0.00457572
0.0946167
-0.00456961
-0.00446696
0.109139
-0.00167919
-0.109555
0.10866
-0.00191521
0.108121
-0.00214932
0.107526
-0.00236816
0.106879
-0.00256822
0.106185
-0.00275065
0.105449
-0.00291739
0.104675
-0.00306819
0.103866
-0.00320331
0.103027
-0.00332091
0.102162
-0.0034227
0.101277
-0.00350563
0.100374
-0.00357458
0.0994597
-0.00362233
0.0985357
-0.00366055
0.0976091
-0.00367171
0.0966798
-0.00368366
0.0957581
-0.00365409
0.0948379
-0.00364938
-0.00356762
0.109249
-0.00126022
-0.109668
0.108771
-0.00143644
0.108232
-0.00161119
0.107639
-0.00177458
0.106995
-0.00192398
0.106304
-0.00206028
0.105572
-0.00218489
0.104801
-0.00229767
0.103997
-0.00239873
0.103162
-0.00248675
0.102303
-0.00256294
0.101422
-0.00262508
0.100524
-0.00267673
0.0996146
-0.00271261
0.0986953
-0.00274126
0.0977734
-0.0027498
0.0968485
-0.00275877
0.0959312
-0.00273682
0.0950152
-0.00273333
-0.00267223
0.109334
-0.000839623
-0.109754
0.108855
-0.000957242
0.108317
-0.00107358
0.107725
-0.00118222
0.107082
-0.00128154
0.106394
-0.00137217
0.105664
-0.00145506
0.104897
-0.00153011
0.104095
-0.00159735
0.103265
-0.00165597
0.102408
-0.00170666
0.101531
-0.00174811
0.100637
-0.00178244
0.0997309
-0.00180649
0.0988151
-0.00182546
0.0978967
-0.0018314
0.0969751
-0.00183717
0.0960611
-0.00182286
0.0951481
-0.00182035
-0.00177984
0.109389
-0.00041841
-0.10981
0.10891
-0.000478133
0.108373
-0.000536536
0.107782
-0.000590794
0.10714
-0.000640326
0.106454
-0.000685587
0.105726
-0.000726995
0.10496
-0.000764542
0.104161
-0.000798112
0.103333
-0.000827458
0.102479
-0.000852693
0.101604
-0.000873537
0.100712
-0.000890502
0.0998084
-0.000902824
0.0988948
-0.000911871
0.0979789
-0.000915507
0.0970592
-0.000917449
0.096148
-0.000911691
0.0952362
-0.000908571
-0.000890259
0.109415
-0.109833
0.108937
0.1084
0.107809
0.107169
0.106483
0.105756
0.104992
0.104194
0.103366
0.102514
0.10164
0.100749
0.0998467
0.0989348
0.0980193
0.0971018
0.0961901
0.0952816
0.0841756
0.0141208
-0.0826009
0.0859988
0.0218327
0.0880865
0.0295636
0.0904388
0.0372323
0.0930588
0.0447559
0.0959664
0.0520244
0.0988372
0.0591827
0.102019
0.0652415
0.103345
0.0722119
0.0739592
0.0838894
0.012685
-0.0824536
0.0856165
0.0201057
0.08764
0.02754
0.0900003
0.034872
0.0925938
0.0421624
0.0956567
0.0489614
0.0986602
0.0561793
0.102293
0.0616092
0.1054
0.0691042
0.071952
0.0837624
0.0114085
-0.0824859
0.0853701
0.018498
0.0872736
0.0256365
0.0895772
0.0325685
0.0920966
0.039643
0.0951224
0.0459356
0.0982653
0.0530364
0.101789
0.0580859
0.105733
0.0651599
0.0688475
0.083761
0.0102688
-0.0826213
0.0852585
0.0170004
0.0870537
0.0238413
0.0892639
0.0303582
0.0917426
0.0371644
0.0946416
0.0430365
0.097904
0.049774
0.101305
0.054685
0.10544
0.0610252
0.0650906
0.083852
0.00923751
-0.0828207
0.0852528
0.0155996
0.0869763
0.0221178
0.0890902
0.0282444
0.091556
0.0346986
0.0943409
0.0402516
0.0976295
0.0464855
0.101007
0.0513075
0.105051
0.0569807
0.0610718
0.084006
0.00829273
-0.0830613
0.0853213
0.0142843
0.0869969
0.0204422
0.0890323
0.026209
0.0914806
0.0322503
0.0942005
0.0375316
0.0974374
0.0432487
0.100826
0.0479189
0.104741
0.0530656
0.0569889
0.0841999
0.00742096
-0.0833281
0.0854416
0.0130426
0.0870757
0.0188082
0.0890559
0.0242288
0.0914714
0.0298347
0.0941646
0.0348384
0.0973315
0.0400818
0.100729
0.0445216
0.10456
0.0492345
0.0529152
0.0844167
0.00661438
-0.0836101
0.0855976
0.0118617
0.0871902
0.0172157
0.0891342
0.0222848
0.0915119
0.027457
0.0941969
0.0321533
0.0973137
0.036965
0.100713
0.0411219
0.104502
0.0454458
0.0488662
0.0846447
0.00586734
-0.0838977
0.0857762
0.0107302
0.0873286
0.0156633
0.0892481
0.0203653
0.0915935
0.0251116
0.094276
0.0294709
0.0973659
0.0338751
0.100765
0.0377231
0.104534
0.0416768
0.0448339
0.0848755
0.00517427
-0.0841825
0.0859661
0.00963967
0.0874826
0.0141467
0.0893835
0.0184644
0.0917052
0.0227899
0.094385
0.026791
0.097462
0.0307981
0.100861
0.0343246
0.104623
0.0379143
0.0408055
0.0851025
0.00452924
-0.0844574
0.0861583
0.00858387
0.0876444
0.0126606
0.0895295
0.0165793
0.0918344
0.0204851
0.0945112
0.0241142
0.0975827
0.0277267
0.100984
0.030923
0.104748
0.0341506
0.0367715
0.0853199
0.00392629
-0.084717
0.0863457
0.00755808
0.0878067
0.0111996
0.0896781
0.0147079
0.091971
0.0181921
0.0946459
0.0214393
0.0977161
0.0246566
0.101124
0.0275154
0.104893
0.0303815
0.0327267
0.0855232
0.00335954
-0.0849565
0.086523
0.00655827
0.0879632
0.00975945
0.0898231
0.0128481
0.0921076
0.0159076
0.094782
0.018765
0.0978534
0.0215851
0.101269
0.0241
0.105045
0.0266051
0.0286687
0.0857082
0.00282439
-0.0851731
0.0866861
0.00558036
0.0881093
0.00833623
0.0899596
0.0109978
0.0922384
0.0136288
0.0949134
0.0160899
0.0979875
0.018511
0.101411
0.0206764
0.105195
0.022821
0.0245972
0.0858722
0.002312
-0.0853599
0.0868312
0.0046214
0.0882405
0.0069269
0.0900834
0.0091549
0.0923583
0.0113539
0.0950349
0.0134133
0.0981123
0.0154336
0.101544
0.0172445
0.105336
0.0190292
0.0205134
0.0860124
0.00182193
-0.0855223
0.0869561
0.00367765
0.0883545
0.00552853
0.0901916
0.00731782
0.0924639
0.00908153
0.0951425
0.0107347
0.0982235
0.0123527
0.101663
0.0138052
0.105461
0.0152306
0.0164194
0.0861273
0.00134953
-0.0856549
0.0870586
0.00274641
0.0884484
0.00413871
0.0902812
0.00548504
0.092552
0.00681068
0.0952328
0.00805395
0.0983172
0.00926827
0.101763
0.0103596
0.105567
0.0114265
0.012318
0.086215
0.000891041
-0.0857565
0.0871366
0.00182485
0.08852
0.00275528
0.0903498
0.0036552
0.09262
0.00454052
0.0953029
0.00537102
0.0983904
0.00618084
0.101841
0.00690894
0.105649
0.00761878
0.00821237
0.0862734
0.000443777
-0.0858261
0.0871881
0.000910071
0.0885671
0.00137632
0.0903951
0.00182715
0.0926652
0.00227044
0.0953501
0.00268612
0.0984399
0.00309109
0.101894
0.00345495
0.105703
0.00380919
0.00410535
0.0863024
-0.0858587
0.0872125
0.0885888
0.090416
0.0926864
0.0953725
0.0984636
0.101919
0.105728
0.0405411
0.055777
-0.0512265
-0.0450915
0.0356025
0.056218
-0.0512794
0.0306564
0.0569975
-0.0520515
0.0257071
0.0581634
-0.0532141
0.02073
0.0596767
-0.0546995
0.01571
0.0615889
-0.0565689
0.0106685
0.0638373
-0.0587957
0.00581177
0.065222
-0.0603653
0.00180895
0.0605383
-0.0565354
0.0358962
-0.0340872
0.0369781
0.060495
-0.0416962
0.0322889
0.0609072
0.0276326
0.0616539
0.0230009
0.0627951
0.0183557
0.0643218
0.0136753
0.0662693
0.00900977
0.0685028
0.00462662
0.0696052
0.00123253
0.0639324
0.0371287
0.0330845
0.0648718
-0.0374612
0.0286808
0.0653108
0.0243032
0.0660315
0.0199692
0.0671292
0.0156526
0.0686384
0.0113345
0.0705874
0.00709582
0.0727415
0.00327252
0.0734284
0.000564849
0.06664
0.0376936
0.0285923
0.0688669
-0.0325874
0.0245667
0.0693364
0.0205461
0.0700521
0.0165655
0.0711098
0.0126195
0.0725844
0.00870514
0.0745018
0.00493143
0.0765152
0.00174358
0.0766163
-0.000171976
0.0685556
0.0375216
0.0235224
0.0724634
-0.0271189
0.0199126
0.0729462
0.0163141
0.0736506
0.0127532
0.0746706
0.00923417
0.0761035
0.00578008
0.0779559
0.00254054
0.0797548
-8.12939e-05
0.0792381
-0.000856956
0.0693312
0.0366646
0.0179005
0.0756125
-0.0210497
0.0147564
0.0760903
0.0116311
0.0767759
0.0085444
0.0777573
0.00550889
0.079139
0.00258101
0.0808837
-1.23606e-05
0.0823481
-0.00162343
0.0808492
-0.00156805
0.0692759
0.0350966
0.011799
0.078246
-0.0144325
0.00916755
0.0787217
0.00655383
0.0793896
0.00398476
0.0803264
0.00148588
0.0816379
-0.000849571
0.0832192
-0.00268773
0.0841863
-0.00340251
0.081564
-0.00227339
0.0681467
0.0328232
0.00528329
0.0803343
-0.00737155
0.00318619
0.0808188
0.00112999
0.0814458
-0.000891924
0.0823483
-0.00283691
0.0835828
-0.0045265
0.0849088
-0.00556095
0.0852207
-0.00522323
0.0812263
-0.00293902
0.0658625
0.0298842
-0.00158006
0.0819877
-7.3347e-05
-0.00312048
0.0823592
-0.00462561
0.0829509
-0.00608286
0.0838055
-0.00740933
0.0849093
-0.00838337
0.0858828
-0.00849815
0.0853355
-0.00698998
0.0797181
-0.00350848
0.062381
0.0263757
-0.00875371
0.00787086
-0.00969313
-0.0106193
-0.0114832
-0.012159
-0.0123318
-0.0113991
-0.00860772
-0.00392137
0.048782
0.00464435
-0.0534263
0.0439711
0.00481087
0.0389688
0.00500228
0.0337536
0.00521526
0.0282956
0.00545797
0.0225544
0.00574119
0.0164841
0.0060703
0.010112
0.00637207
0.00393413
0.00617791
0.00393413
0.0488404
0.00933503
-0.0535311
0.0439909
0.00966039
0.0389585
0.0100347
0.0337216
0.0104522
0.0282502
0.0109294
0.0225034
0.0114879
0.0164337
0.01214
0.010068
0.0127378
0.00391707
0.0123288
0.0078512
0.0489245
0.0141122
-0.0537018
0.0440032
0.0145818
0.0389148
0.0151231
0.0336374
0.0157295
0.0281408
0.016426
0.0223836
0.0172451
0.0163192
0.0182044
0.00997774
0.0190793
0.00386754
0.018439
0.0117187
0.0489714
0.0189996
-0.0538588
0.0439586
0.0195946
0.0387991
0.0202826
0.0334714
0.0210572
0.0279453
0.0219521
0.0221797
0.0230107
0.0161292
0.024255
0.00982839
0.02538
0.00378913
0.0244783
0.0155079
0.0488969
0.0240035
-0.0539008
0.0437865
0.024705
0.0385526
0.0255165
0.0331763
0.0264335
0.0276275
0.027501
0.0218646
0.0287736
0.0158438
0.0302758
0.00960781
0.031616
0.00367479
0.0304113
0.0191827
0.048626
0.0291001
-0.0537226
0.0434296
0.0299014
0.0381277
0.0308185
0.032711
0.0318501
0.0271521
0.0330599
0.0214091
0.0345166
0.0154408
0.0362441
0.00930128
0.0377555
0.0035177
0.0361949
0.0227004
0.0480201
0.0342858
-0.0532059
0.042747
0.0351745
0.0374029
0.0361626
0.0319813
0.0372717
0.026448
0.0385932
0.02076
0.0402047
0.0148823
0.0421217
0.00888608
0.0437517
0.00331159
0.0417693
0.026012
0.0471894
0.0395316
-0.0524352
0.0418273
0.0405366
0.0364496
0.0415403
0.0310376
0.0426836
0.0255422
0.0440887
0.0199248
0.045822
0.0141634
0.0478832
0.00835218
0.0495629
0.00305461
0.0470669
0.0290666
0.0455208
0.045011
-0.0510002
0.0401278
0.0459296
0.034869
0.0467991
0.0295978
0.0479549
0.024248
0.0494384
0.0187932
0.0512768
0.013224
0.0534525
0.00766645
0.0551204
0.00271774
0.0520156
0.0317843
0.0438256
-0.0500411
0.0384757
0.0332234
0.0279642
0.0227031
0.0174109
0.0120676
0.00682275
0.00230293
0.0582366
-0.000238338
0.0584765
-0.000239949
0.0587104
-0.00023382
0.0589311
-0.000220698
0.059132
-0.000200968
0.0593073
-0.000175292
0.0594507
-0.000143413
0.0595552
-0.000104431
0.0596121
-5.69894e-05
0.0596101
2.04951e-06
0.059545
6.51148e-05
0.0594036
0.000141367
0.059173
0.000230665
0.0588381
0.000334834
0.058382
0.000456124
0.0577843
0.000597731
0.0570222
0.000762028
0.0560658
0.00095644
0.0548912
0.00117464
0.00146482
0.0586702
-0.00047173
0.0589013
-0.000471072
0.0591227
-0.000455234
0.0593295
-0.000427468
0.0595161
-0.000387572
0.0596767
-0.000335879
0.059805
-0.000271731
0.0598938
-0.000193289
0.0599346
-9.77599e-05
0.0599183
1.83747e-05
0.0598365
0.000146863
0.0596779
0.000299993
0.0594294
0.000479154
0.0590761
0.000688121
0.0586009
0.000931334
0.0579833
0.00121536
0.0572006
0.00154469
0.0562219
0.00193516
0.0550243
0.00237219
0.00295805
0.0595235
-0.000675894
0.0597268
-0.000674371
0.0599205
-0.000648944
0.060099
-0.000605895
0.0602563
-0.000544955
0.0603867
-0.000466207
0.0604837
-0.000368787
0.0605407
-0.000250309
0.0605488
-0.000105863
0.0605008
6.64208e-05
0.060385
0.000262658
0.060191
0.000494036
0.0599059
0.000764221
0.0595148
0.00107923
0.0590005
0.00144558
0.0583422
0.00187365
0.0575177
0.00236928
0.0564938
0.00295898
0.0552509
0.00361511
0.00450721
0.060758
-0.000835582
0.0609157
-0.000832054
0.0610633
-0.000796501
0.061195
-0.00073767
0.0613051
-0.000655072
0.0613874
-0.000548469
0.0614349
-0.000416315
0.0614407
-0.00025608
0.0613972
-6.23376e-05
0.0612972
0.000166385
0.0611274
0.000432515
0.0608776
0.000743826
0.0605352
0.00110663
0.0600849
0.00152951
0.0595098
0.0020207
0.0587881
0.00259528
0.0578986
0.00325883
0.056805
0.00405256
0.0554929
0.00492719
0.00614137
0.062323
-0.000929679
0.0624136
-0.000922654
0.0624932
-0.000876165
0.0625565
-0.00080096
0.0625976
-0.00069614
0.0626102
-0.000561048
0.0625876
-0.000393802
0.0625221
-0.000190544
0.0624051
5.47239e-05
0.0622275
0.000343939
0.0619798
0.000680209
0.0616507
0.00107291
0.0612275
0.00152988
0.0606943
0.00206271
0.0600344
0.00268053
0.0592249
0.0034048
0.0582462
0.0042376
0.0570571
0.00524167
0.0556511
0.00633315
0.00789166
0.0641569
-0.00093357
0.064155
-0.000920731
0.0641412
-0.000862444
0.0641105
-0.000770242
0.064057
-0.000642587
0.0639745
-0.000478572
0.0638562
-0.000275513
0.063698
-3.23429e-05
0.0634809
0.000271799
0.0632017
0.000623182
0.0628499
0.00103198
0.062415
0.00150786
0.0618845
0.00206036
0.0612417
0.00270546
0.0604709
0.00345139
0.0595463
0.00432933
0.0584517
0.00533225
0.0571391
0.00655422
0.0556141
0.00785818
0.00978317
0.0661946
-0.000818353
0.0660707
-0.000796858
0.0659344
-0.000726074
0.0657808
-0.00061665
0.065604
-0.000465781
0.0653978
-0.000272379
0.0651626
-4.03088e-05
0.064868
0.000262192
0.0645245
0.000615321
0.0641186
0.0010291
0.0636394
0.00151122
0.0630736
0.00207357
0.0624098
0.00272424
0.0616305
0.00348472
0.0607231
0.00435882
0.0596585
0.00539387
0.0584259
0.00656489
0.0569618
0.00801828
0.0552824
0.00953766
0.0118597
0.0683721
-0.000553493
0.0680953
-0.000520107
0.0678047
-0.000435472
0.0674957
-0.000307573
0.0671677
-0.00013786
0.0668132
8.21725e-05
0.0664036
0.000369222
0.0659553
0.000710522
0.0654549
0.00111576
0.0648906
0.00159338
0.0642523
0.00214952
0.0635261
0.00279979
0.0627012
0.00354912
0.0617571
0.00442879
0.060686
0.00542995
0.0594511
0.00662872
0.0580628
0.00795323
0.0564376
0.00964347
0.0546466
0.0113287
0.014071
0.0706399
-0.000100011
0.0701737
-5.38375e-05
0.0697015
3.66899e-05
0.0692073
0.000186671
0.0686848
0.00038466
0.0681265
0.000640395
0.0675369
0.000958898
0.0669022
0.00134514
0.0662137
0.00180432
0.06546
0.00234704
0.0646314
0.00297812
0.063713
0.00371821
0.0626961
0.00456597
0.0615567
0.00556824
0.0602935
0.00669315
0.0588545
0.00806775
0.0572715
0.00953619
0.0554078
0.0115072
0.0534438
0.0132927
0.0165146
0.0729947
0.000606128
0.0722899
0.000650963
0.0715736
0.000752941
0.0708483
0.000912009
0.0701025
0.00113046
0.0693292
0.00141367
0.0685211
0.00176703
0.0676684
0.00219781
0.0667624
0.00271031
0.0657922
0.00331728
0.064749
0.00402126
0.0636182
0.00484906
0.0623955
0.00578865
0.0610569
0.00690687
0.0596201
0.00812988
0.0580284
0.00965952
0.0563865
0.011178
0.0544776
0.0134161
0.0527054
0.015065
0.0191789
0.0696635
0.000602572
0.0696603
0.000654141
0.0696564
0.000756803
0.0696535
0.000914888
0.0696512
0.00113276
0.0696502
0.00141475
0.0696527
0.00176444
0.0696618
0.0021888
0.0696817
0.0026904
0.0697164
0.00328254
0.0697756
0.00396205
0.0698644
0.00476029
0.0700055
0.00564756
0.0701995
0.00671287
0.0705061