/*--------------------------------*- C++ -*----------------------------------*\
| =========                 |                                                 |
| \\      /  F ield         | OpenFOAM: The Open Source CFD Toolbox           |
|  \\    /   O peration     | Version:  4.1                                   |
|   \\  /    A nd           | Web:      www.OpenFOAM.org                      |
|    \\/     M anipulation  |                                                 |
\*---------------------------------------------------------------------------*/
FoamFile
{
    version     2.0;
    format      ascii;
    class       volScalarField;
    location    "1.2";
    object      p;
}
// * * * * * * * * * * * * * * * * * * * * * * * * * * * * * * * * * * * * * //

dimensions      [0 2 -2 0 0 0 0];

internalField   nonuniform List<scalar> 
2000
(
0.261654
0.266906
0.271471
0.275458
0.278221
0.279467
0.2793
0.277935
0.27545
0.272416
0.271212
0.276608
0.281758
0.286545
0.290165
0.292267
0.292933
0.292349
0.29056
0.288317
0.282139
0.287671
0.293414
0.299006
0.303477
0.306425
0.307913
0.308114
0.307089
0.305616
0.294508
0.30016
0.306493
0.312869
0.318165
0.321927
0.324206
0.325171
0.324909
0.324212
0.308382
0.314128
0.32103
0.328154
0.334227
0.338759
0.341789
0.343489
0.343973
0.344019
0.323803
0.329608
0.337044
0.344859
0.351647
0.356891
0.360622
0.36302
0.364228
0.364984
0.340791
0.346613
0.354532
0.362965
0.370391
0.376276
0.380652
0.383703
0.385605
0.387032
0.359342
0.365129
0.373467
0.382428
0.390402
0.39685
0.401803
0.405457
0.408021
0.410072
0.379423
0.385114
0.393795
0.403182
0.411603
0.418526
0.423984
0.428186
0.43137
0.433992
0.400971
0.406497
0.415435
0.425131
0.433892
0.441197
0.447083
0.451771
0.455526
0.458663
0.221818
0.225995
0.227117
0.226275
0.223749
0.219749
0.214564
0.208466
0.201668
0.194332
0.222402
0.226623
0.227804
0.227066
0.224658
0.220771
0.215693
0.209696
0.202995
0.195737
0.223602
0.227877
0.229199
0.228665
0.226483
0.222823
0.217959
0.21216
0.205651
0.198549
0.225443
0.229791
0.231325
0.231091
0.229245
0.225919
0.221369
0.215863
0.209635
0.202765
0.227967
0.23241
0.234221
0.234379
0.23297
0.230078
0.225936
0.220808
0.214947
0.208383
0.231235
0.23579
0.23794
0.238575
0.237693
0.235325
0.231676
0.227005
0.221584
0.215393
0.235321
0.240001
0.242546
0.243731
0.243457
0.241688
0.238604
0.234456
0.229543
0.223784
0.24031
0.245126
0.248113
0.249914
0.250311
0.249202
0.246734
0.243157
0.238795
0.233509
0.246297
0.251255
0.254729
0.257205
0.258331
0.257931
0.256119
0.253135
0.249301
0.244368
0.25338
0.258483
0.262486
0.265695
0.267612
0.267996
0.266938
0.264664
0.261382
0.256523
0.186596
0.178328
0.16972
0.160873
0.151826
0.142605
0.133237
0.123745
0.11415
0.104466
0.0947074
0.0848865
0.0750133
0.0650963
0.0551423
0.0451733
0.0351767
0.0251574
0.0151292
0.00509017
0.188002
0.179666
0.170976
0.162056
0.15294
0.143648
0.134208
0.124644
0.114977
0.105221
0.0953905
0.0854972
0.0755514
0.065563
0.0555438
0.0454887
0.0354203
0.0253312
0.0152322
0.00512395
0.190818
0.182345
0.173492
0.164427
0.15517
0.145734
0.136149
0.12644
0.116626
0.106725
0.0967487
0.0867097
0.0766185
0.066484
0.0563114
0.046113
0.0359061
0.025678
0.0154375
0.00518818
0.195032
0.186346
0.177254
0.167976
0.158509
0.148859
0.139059
0.129135
0.119107
0.10899
0.0987982
0.0885421
0.0782312
0.0678731
0.057473
0.0470324
0.0366251
0.0261964
0.0157474
0.00528619
0.200637
0.191655
0.182249
0.172689
0.162939
0.152999
0.142908
0.132694
0.122376
0.111969
0.101487
0.0909441
0.0803502
0.0697166
0.059055
0.0483736
0.0376205
0.0268941
0.0161605
0.00541655
0.207619
0.198256
0.18847
0.178568
0.16847
0.158178
0.147736
0.137171
0.126501
0.115742
0.104907
0.0940089
0.0830571
0.0720596
0.0610235
0.0499509
0.038832
0.027766
0.0166881
0.00558676
0.215944
0.206109
0.19587
0.18554
0.175002
0.164268
0.153386
0.142384
0.131279
0.120088
0.108824
0.0975001
0.0861261
0.0747117
0.0632663
0.0518001
0.0403146
0.0287242
0.0172464
0.00576916
0.225565
0.215231
0.204516
0.193727
0.182728
0.171533
0.160186
0.14871
0.137126
0.12545
0.113698
0.101881
0.0900106
0.0780953
0.0661433
0.0541635
0.04217
0.0301708
0.0180755
0.00601761
0.236177
0.225383
0.214025
0.202531
0.190868
0.179055
0.167116
0.155069
0.142928
0.130708
0.11842
0.106077
0.0936871
0.0812587
0.0687993
0.0563152
0.043812
0.031296
0.0187779
0.00625675
0.247337
0.237283
0.22598
0.214077
0.201874
0.189466
0.176899
0.164201
0.151396
0.138498
0.125522
0.112477
0.099375
0.0862236
0.0730308
0.0598033
0.0465468
0.033266
0.0199657
0.00665964
0.25853
0.246365
0.233983
0.221183
0.208212
0.195144
0.181986
0.168749
0.155447
0.142089
0.128685
0.11524
0.101761
0.088252
0.074719
0.0611657
0.0475962
0.0340139
0.0204217
0.00682236
0.263103
0.249693
0.236585
0.223356
0.210062
0.196734
0.183362
0.169944
0.156486
0.142992
0.129467
0.115913
0.102336
0.0887367
0.0751197
0.0614873
0.0478417
0.0341849
0.0205185
0.00684474
0.266996
0.253088
0.239504
0.225882
0.212253
0.198636
0.185017
0.171385
0.15774
0.14408
0.130407
0.116721
0.103023
0.0893142
0.0755951
0.0618668
0.0481304
0.0343864
0.0206355
0.00687812
0.270682
0.25643
0.242439
0.228456
0.214516
0.200627
0.186768
0.172923
0.159088
0.145259
0.131432
0.117607
0.10378
0.0899522
0.076122
0.0622891
0.048453
0.0346132
0.0207691
0.00691852
0.27405
0.259484
0.245143
0.23085
0.216639
0.202508
0.188432
0.174392
0.160382
0.146393
0.132421
0.118462
0.104513
0.0905705
0.0766332
0.062699
0.0487661
0.0348331
0.0208982
0.00695725
0.277089
0.26226
0.247629
0.233076
0.21863
0.204284
0.190011
0.175793
0.161619
0.147481
0.133373
0.119287
0.10522
0.0911685
0.077128
0.0630959
0.0490694
0.0350461
0.0210233
0.00699513
0.279827
0.264781
0.249911
0.235138
0.220489
0.205953
0.191503
0.177123
0.162799
0.148522
0.134285
0.12008
0.105902
0.091745
0.0776055
0.0634793
0.0493626
0.0352522
0.0211447
0.00703229
0.282284
0.267057
0.251988
0.23703
0.222208
0.207505
0.192899
0.178371
0.16391
0.149506
0.13515
0.120833
0.10655
0.0922946
0.0780613
0.0638456
0.049643
0.0354495
0.0212609
0.00706822
0.284476
0.269101
0.253867
0.238754
0.223782
0.208935
0.19419
0.179531
0.164947
0.150427
0.135961
0.121542
0.107161
0.0928131
0.0784918
0.0641918
0.0499082
0.0356362
0.021371
0.00710258
0.286421
0.270922
0.255552
0.24031
0.225211
0.210239
0.195374
0.180599
0.165905
0.15128
0.136715
0.122201
0.10773
0.093297
0.078894
0.0645157
0.0501564
0.035811
0.0214744
0.00713506
0.288136
0.272535
0.257052
0.241703
0.226498
0.211419
0.196448
0.181572
0.16678
0.152061
0.137406
0.122807
0.108255
0.0937434
0.0792656
0.0648151
0.0503861
0.035973
0.0215701
0.00716539
0.289636
0.27395
0.258376
0.242938
0.227643
0.212473
0.197411
0.182447
0.167569
0.152768
0.138033
0.123358
0.108732
0.0941501
0.0796043
0.0650883
0.0505959
0.0361209
0.0216578
0.00719333
0.290934
0.27518
0.259531
0.24402
0.22865
0.213403
0.198264
0.183224
0.168272
0.153398
0.138594
0.12385
0.10916
0.0945151
0.0799087
0.0653341
0.0507846
0.0362542
0.0217367
0.00721866
0.292044
0.276233
0.260524
0.244954
0.229522
0.214211
0.199007
0.183903
0.168887
0.153951
0.139086
0.124284
0.109537
0.094837
0.0801774
0.0655511
0.0509515
0.0363721
0.0218067
0.0072412
0.292977
0.277119
0.261362
0.245745
0.230263
0.214898
0.199641
0.184483
0.169414
0.154425
0.139509
0.124657
0.109862
0.0951146
0.0804093
0.0657386
0.0510956
0.036474
0.0218672
0.0072608
0.29374
0.277846
0.262051
0.246398
0.230875
0.215468
0.200167
0.184965
0.169852
0.154821
0.139863
0.124969
0.110133
0.0953471
0.0806036
0.0658957
0.0512166
0.0365595
0.021918
0.00727732
0.294344
0.278421
0.262598
0.246915
0.231361
0.215921
0.200587
0.18535
0.170203
0.155137
0.140145
0.125219
0.110351
0.0955337
0.0807597
0.0660221
0.0513138
0.0366283
0.0219589
0.00729066
0.294793
0.278849
0.263004
0.247301
0.231724
0.21626
0.2009
0.185638
0.170466
0.155375
0.140358
0.125407
0.110515
0.095674
0.0808771
0.0661171
0.0513871
0.0366801
0.0219897
0.00730075
0.295092
0.279134
0.263275
0.247557
0.231965
0.216485
0.201109
0.18583
0.170641
0.155533
0.1405
0.125532
0.110624
0.0957678
0.0809556
0.0661807
0.051436
0.0367148
0.0220103
0.00730767
0.295257
0.279283
0.263412
0.247686
0.232086
0.216598
0.201213
0.185926
0.170728
0.155612
0.14057
0.125595
0.110679
0.0958147
0.0809948
0.0662125
0.0514605
0.0367321
0.0220205
0.00731202
0.461283
0.436701
0.412794
0.389695
0.367516
0.346343
0.326246
0.307254
0.289475
0.272399
0.463614
0.43968
0.416333
0.393695
0.371869
0.350941
0.330991
0.312043
0.294318
0.27708
0.465692
0.442314
0.419464
0.397255
0.375786
0.355139
0.335395
0.31656
0.298895
0.281494
0.46745
0.444548
0.42212
0.400275
0.379107
0.358696
0.339121
0.320382
0.302765
0.285418
0.468968
0.446495
0.424453
0.402945
0.382063
0.361881
0.342479
0.323855
0.306288
0.289018
0.470285
0.448199
0.426507
0.405308
0.384689
0.364723
0.345484
0.326976
0.309448
0.292254
0.471431
0.449694
0.42832
0.407404
0.387027
0.36726
0.348173
0.329774
0.31228
0.295159
0.47243
0.45101
0.429927
0.409269
0.389115
0.36953
0.350582
0.332284
0.31482
0.297758
0.473302
0.452171
0.431353
0.410933
0.390982
0.371565
0.352743
0.334535
0.317093
0.300075
0.474063
0.453196
0.432622
0.412418
0.392655
0.37339
0.354681
0.336551
0.319123
0.302131
0.474726
0.454101
0.43375
0.413746
0.394153
0.375026
0.356418
0.338352
0.32093
0.303948
0.475301
0.454899
0.434753
0.414932
0.395495
0.376492
0.357971
0.339957
0.322533
0.305544
0.475799
0.455601
0.435644
0.415991
0.396695
0.377803
0.359358
0.341384
0.323947
0.306934
0.476226
0.456216
0.436433
0.416933
0.397765
0.378972
0.36059
0.342643
0.325185
0.308132
0.476588
0.456751
0.437127
0.417768
0.398715
0.380008
0.361679
0.343749
0.326258
0.309151
0.476889
0.457212
0.437734
0.418502
0.399554
0.380922
0.362634
0.344708
0.327176
0.309999
0.477134
0.457603
0.43826
0.419144
0.400288
0.38172
0.363462
0.34553
0.327947
0.310686
0.477325
0.457927
0.438706
0.419695
0.400921
0.382406
0.364169
0.34622
0.328576
0.311217
0.477467
0.458189
0.439076
0.420155
0.40145
0.382977
0.364749
0.346774
0.329061
0.311595
0.477557
0.458409
0.439415
0.420594
0.40196
0.383526
0.365297
0.347277
0.32947
0.311863
0.70482
0.700975
0.695603
0.690055
0.68444
0.678623
0.672539
0.666374
0.661288
0.660995
0.684152
0.679599
0.673607
0.667758
0.661839
0.655561
0.64885
0.641928
0.636033
0.634977
0.661719
0.656785
0.650606
0.64457
0.638341
0.631602
0.624279
0.61663
0.609962
0.608167
0.637752
0.63278
0.626654
0.620539
0.614071
0.606939
0.599073
0.590765
0.583385
0.580899
0.612903
0.607997
0.602008
0.595881
0.589248
0.581805
0.573483
0.564613
0.556602
0.553491
0.587458
0.582679
0.576896
0.570827
0.564106
0.556439
0.547764
0.538449
0.529893
0.52624
0.561628
0.557038
0.551533
0.545596
0.538872
0.531076
0.522159
0.512537
0.503518
0.499419
0.535629
0.531296
0.526136
0.520406
0.513762
0.505939
0.496893
0.487111
0.477738
0.473258
0.509678
0.505661
0.500914
0.495464
0.488986
0.481238
0.472144
0.4622
0.452965
0.448034
0.483987
0.480321
0.476071
0.470968
0.464737
0.457151
0.448164
0.438275
0.429165
0.423886
0.828863
0.823493
0.818742
0.814701
0.811441
0.809044
0.807564
0.80701
0.807882
0.812736
0.826586
0.821137
0.816359
0.812276
0.80895
0.806464
0.804875
0.804187
0.804895
0.809666
0.822035
0.816437
0.811607
0.807441
0.803984
0.801322
0.799509
0.798554
0.798978
0.803525
0.815224
0.809423
0.804523
0.800237
0.796587
0.793668
0.791527
0.790181
0.790197
0.794404
0.806179
0.800141
0.795158
0.790717
0.786822
0.783574
0.781011
0.779161
0.778651
0.782418
0.794929
0.788641
0.783574
0.778953
0.774768
0.77113
0.768066
0.765615
0.764477
0.767712
0.781544
0.775004
0.76986
0.765037
0.76053
0.756455
0.752826
0.749695
0.747846
0.750471
0.766004
0.759264
0.754082
0.749063
0.744221
0.739685
0.73545
0.731584
0.728961
0.730913
0.748529
0.741598
0.736406
0.731178
0.725993
0.720989
0.716126
0.711494
0.708058
0.709287
0.728266
0.72197
0.716876
0.711469
0.706001
0.700558
0.695073
0.689667
0.685403
0.685877
0.995246
0.985819
0.97645
0.96711
0.957806
0.948557
0.939375
0.930272
0.921245
0.912341
0.903575
0.894963
0.886525
0.878283
0.870266
0.862501
0.855022
0.847864
0.841065
0.83468
0.995207
0.985701
0.976251
0.966827
0.95744
0.948105
0.938834
0.929634
0.920524
0.911531
0.902671
0.893959
0.885416
0.877064
0.868928
0.861035
0.853417
0.846106
0.839133
0.832557
0.995132
0.985467
0.975853
0.966264
0.956711
0.947206
0.937763
0.928381
0.919099
0.909926
0.900875
0.891964
0.88321
0.874636
0.866262
0.858113
0.850216
0.842598
0.835277
0.828312
0.995019
0.985114
0.975254
0.965419
0.955618
0.945864
0.936165
0.9265
0.916951
0.907508
0.898174
0.888966
0.879901
0.870997
0.862271
0.853742
0.84543
0.837356
0.829517
0.821949
0.994869
0.984651
0.97447
0.964312
0.954184
0.944094
0.934038
0.92406
0.914169
0.90436
0.894647
0.885045
0.875566
0.866221
0.857025
0.847987
0.839118
0.830432
0.8219
0.813495
0.994677
0.984058
0.973466
0.962895
0.952357
0.941859
0.93133
0.920936
0.910614
0.900356
0.890178
0.880091
0.870102
0.860219
0.850446
0.840785
0.831236
0.821798
0.812425
0.802955
0.99446
0.983389
0.972342
0.961318
0.95031
0.939246
0.928324
0.917451
0.90661
0.89582
0.885092
0.87443
0.863836
0.853308
0.842841
0.832425
0.822041
0.811672
0.801264
0.790437
0.994176
0.982523
0.970887
0.959261
0.94758
0.93602
0.924519
0.913036
0.901582
0.890168
0.878794
0.867459
0.856159
0.844883
0.833618
0.822343
0.811024
0.799632
0.78812
0.775818
0.993935
0.98178
0.969584
0.957344
0.945207
0.933093
0.92098
0.908881
0.8968
0.884738
0.872689
0.860646
0.848597
0.836521
0.824389
0.812157
0.799755
0.787098
0.774119
0.759761
0.993471
0.980395
0.967355
0.954388
0.941428
0.928472
0.915528
0.902594
0.889667
0.876739
0.8638
0.850835
0.837819
0.824719
0.81149
0.798071
0.784386
0.770351
0.755909
0.740309
0.993314
0.979941
0.96656
0.953171
0.939774
0.926372
0.912958
0.899526
0.886066
0.872564
0.859002
0.845355
0.831589
0.817657
0.8035
0.789035
0.774151
0.758686
0.742396
0.724593
0.99323
0.979691
0.966145
0.952591
0.939025
0.925441
0.911831
0.898187
0.884497
0.870745
0.856911
0.842966
0.828877
0.814596
0.800066
0.785209
0.769926
0.754084
0.737527
0.720072
0.993153
0.97945
0.965738
0.952013
0.938269
0.924498
0.910692
0.896839
0.882925
0.868934
0.854844
0.840627
0.826247
0.811662
0.796817
0.781645
0.766065
0.749977
0.733268
0.715888
0.993073
0.979204
0.96532
0.951419
0.937492
0.923531
0.909524
0.89546
0.881324
0.867097
0.852757
0.838276
0.823622
0.808754
0.793623
0.778172
0.762335
0.746038
0.729197
0.711833
0.992995
0.978964
0.964914
0.950843
0.936742
0.9226
0.908405
0.894145
0.879802
0.86536
0.850795
0.836082
0.821189
0.80608
0.790712
0.775039
0.759006
0.742559
0.725635
0.708283
0.99292
0.978734
0.964525
0.950293
0.936027
0.921716
0.907345
0.892903
0.878373
0.863737
0.848973
0.834056
0.818959
0.803648
0.788088
0.772239
0.75606
0.739507
0.722533
0.70519
0.992848
0.978515
0.964155
0.949771
0.93535
0.92088
0.906347
0.891738
0.877038
0.862227
0.847286
0.832192
0.816919
0.801439
0.785721
0.769733
0.753441
0.736812
0.719809
0.702482
0.992781
0.978308
0.963807
0.94928
0.934715
0.920098
0.905416
0.890655
0.8758
0.860834
0.845737
0.830488
0.815066
0.799444
0.783597
0.767498
0.75112
0.734438
0.717422
0.700118
0.992717
0.978115
0.963483
0.948824
0.934125
0.919374
0.904556
0.889658
0.874664
0.85956
0.844326
0.828944
0.813394
0.797654
0.781702
0.765516
0.749073
0.732355
0.715338
0.698063
0.992658
0.977937
0.963184
0.948403
0.933583
0.918709
0.903768
0.888747
0.873631
0.858405
0.843052
0.827556
0.811898
0.796059
0.780021
0.763766
0.747276
0.730535
0.713526
0.696285
0.992605
0.977774
0.962911
0.94802
0.93309
0.918106
0.903055
0.887924
0.8727
0.857367
0.841912
0.826317
0.810568
0.794648
0.778541
0.762232
0.745706
0.728953
0.711958
0.694752
0.992556
0.977627
0.962665
0.947676
0.932647
0.917565
0.902417
0.887189
0.87187
0.856445
0.840901
0.825224
0.809398
0.793411
0.777248
0.760897
0.744346
0.727587
0.71061
0.693438
0.992513
0.977496
0.962446
0.94737
0.932255
0.917086
0.901852
0.886541
0.87114
0.855636
0.840017
0.824269
0.80838
0.792338
0.77613
0.759747
0.743179
0.726419
0.70946
0.692323
0.992475
0.977382
0.962256
0.947103
0.931912
0.916669
0.901362
0.885978
0.870507
0.854937
0.839254
0.823448
0.807507
0.791419
0.775176
0.758768
0.742188
0.725431
0.708491
0.691385
0.992442
0.977284
0.962092
0.946875
0.93162
0.916314
0.900944
0.8855
0.86997
0.854344
0.838609
0.822754
0.806771
0.790648
0.774377
0.75795
0.741362
0.724609
0.707688
0.69061
0.992415
0.977203
0.961957
0.946686
0.931377
0.916019
0.900598
0.885104
0.869527
0.853855
0.838077
0.822184
0.806167
0.790016
0.773723
0.757283
0.74069
0.723942
0.707037
0.689984
0.992393
0.977137
0.961848
0.946535
0.931184
0.915784
0.900322
0.884789
0.869174
0.853467
0.837656
0.821734
0.80569
0.789517
0.773209
0.756759
0.740163
0.72342
0.706529
0.689496
0.992377
0.977089
0.961767
0.946422
0.931039
0.915608
0.900117
0.884555
0.868912
0.853178
0.837343
0.821398
0.805336
0.789148
0.772828
0.756371
0.739774
0.723035
0.706156
0.689138
0.992366
0.977056
0.961714
0.946346
0.930943
0.915491
0.89998
0.884399
0.868737
0.852986
0.837135
0.821177
0.805102
0.788904
0.772576
0.756115
0.739518
0.722782
0.70591
0.688903
0.99236
0.97704
0.961687
0.946309
0.930895
0.915433
0.899912
0.884321
0.86865
0.85289
0.837032
0.821066
0.804985
0.788782
0.772451
0.755988
0.73939
0.722656
0.705787
0.688785
0.70533
0.683993
0.661768
0.638216
0.613751
0.588693
0.563234
0.537568
0.511895
0.486406
0.701771
0.679531
0.657401
0.634623
0.611001
0.586822
0.562264
0.537487
0.512668
0.487979
0.697644
0.675712
0.654091
0.632021
0.609088
0.58559
0.561726
0.537642
0.513501
0.489465
0.693783
0.672358
0.651208
0.629701
0.607362
0.584465
0.561211
0.537732
0.514178
0.490701
0.690353
0.669422
0.648705
0.627662
0.605829
0.58345
0.560723
0.537772
0.514735
0.491754
0.687327
0.66685
0.646519
0.625863
0.604462
0.582534
0.560267
0.537778
0.515197
0.492656
0.684677
0.664602
0.644603
0.624268
0.603236
0.581699
0.559834
0.537753
0.515576
0.493428
0.682368
0.662638
0.642915
0.622847
0.60213
0.580933
0.559421
0.537701
0.515884
0.494089
0.680365
0.660923
0.641425
0.621576
0.601127
0.580226
0.559025
0.537625
0.516131
0.494654
0.678632
0.659424
0.640104
0.620435
0.600212
0.579569
0.558642
0.537527
0.516324
0.495136
0.677136
0.658115
0.638932
0.619406
0.599376
0.578955
0.55827
0.537411
0.51647
0.495544
0.67585
0.656971
0.63789
0.618476
0.598606
0.57838
0.557908
0.537277
0.516574
0.495886
0.67475
0.655973
0.636962
0.617634
0.597897
0.577837
0.557554
0.537128
0.51664
0.49617
0.673817
0.655104
0.636135
0.616868
0.59724
0.577323
0.557207
0.536965
0.516671
0.4964
0.673034
0.654351
0.635398
0.616173
0.596631
0.576836
0.556865
0.536788
0.51667
0.496581
0.672387
0.653701
0.634744
0.61554
0.596065
0.576372
0.556529
0.536597
0.51664
0.496717
0.671866
0.653147
0.634164
0.614964
0.595537
0.575928
0.556195
0.536394
0.516581
0.49681
0.671463
0.652682
0.633654
0.614442
0.595047
0.575504
0.555865
0.536179
0.516495
0.496862
0.67117
0.652302
0.633216
0.61398
0.594602
0.57511
0.555548
0.535961
0.516391
0.49688
0.670974
0.651968
0.632774
0.613478
0.594091
0.574636
0.555147
0.535661
0.516212
0.496834
)
;

boundaryField
{
    bottom
    {
        type            symmetryPlane;
    }
    right
    {
        type            fixedValue;
        value           uniform 0;
    }
    top
    {
        type            symmetryPlane;
    }
    left
    {
        type            fixedValue;
        value           uniform 1;
    }
    cylinder
    {
        type            zeroGradient;
    }
    defaultFaces
    {
        type            empty;
    }
}


// ************************************************************************* //
