/*--------------------------------*- C++ -*----------------------------------*\
| =========                 |                                                 |
| \\      /  F ield         | OpenFOAM: The Open Source CFD Toolbox           |
|  \\    /   O peration     | Version:  4.1                                   |
|   \\  /    A nd           | Web:      www.OpenFOAM.org                      |
|    \\/     M anipulation  |                                                 |
\*---------------------------------------------------------------------------*/
FoamFile
{
    version     2.0;
    format      ascii;
    class       surfaceScalarField;
    location    "15";
    object      phi;
}
// * * * * * * * * * * * * * * * * * * * * * * * * * * * * * * * * * * * * * //

dimensions      [0 3 -1 0 0 0 0];

internalField   nonuniform List<scalar> 
7430
(
-0.000300045
0.00272169
-0.00242164
-0.000143976
0.00431213
-0.0044682
0.00118216
0.00309841
-0.00442455
0.00451776
-0.00068685
-0.00264875
0.0106099
-0.00684245
0.000750272
0.019706
-0.0147517
0.00565567
0.0309963
-0.0230082
0.0117179
0.0443416
-0.0309292
0.0175839
0.0583359
-0.0387988
0.0248044
-0.0430282
0.0303502
0.071014
-0.000293918
0.0030156
0.000262623
0.00375558
0.0028718
0.000489232
0.00875612
-0.00657116
0.0182593
-0.0163456
0.0304405
-0.026933
0.0438925
-0.0364602
0.057641
-0.0446777
0.0691088
-0.0502665
-0.0542435
0.080324
-0.000150118
0.00316572
0.00121746
0.00238801
0.00595461
-0.00424792
0.0150719
-0.0156885
0.0274477
-0.0287213
0.0408868
-0.0403721
0.0537355
-0.0493089
0.0644391
-0.0553813
0.0729349
-0.0587623
-0.0611177
0.0798091
0.00011693
0.00304879
0.00280249
-0.000297548
0.0104297
-0.0118752
0.0223463
-0.027605
0.0355752
-0.0419502
0.0476473
-0.0524442
0.057293
-0.0589546
0.0643513
-0.0624396
0.0695706
-0.0639815
-0.0644863
0.0729391
0.000477376
0.00257142
0.00517262
-0.0049928
0.0156915
-0.022394
0.0285416
-0.0404551
0.0401948
-0.0536035
0.0491349
-0.0613843
0.0554214
-0.0652412
0.0597956
-0.0668138
0.0629174
-0.0671033
-0.0671656
0.0655967
0.00103236
0.00153906
0.00827811
-0.0122386
0.0203306
-0.0344465
0.0319181
-0.0520427
0.0407265
-0.0624118
0.0467248
-0.0673826
0.0507467
-0.0692631
0.0535525
-0.0696196
0.0558722
-0.069423
-0.0691
0.0578066
0.00200218
-0.000463123
0.0114891
-0.0217255
0.0230638
-0.0460212
0.0322606
-0.0612395
0.0384254
-0.0685767
0.0423376
-0.0712948
0.044894
-0.0718195
0.0467868
-0.0715124
0.0483325
-0.0709687
-0.0703836
0.049616
0.00335171
-0.00381483
0.0138853
-0.0322591
0.0236959
-0.0558318
0.0304515
-0.0679951
0.0345448
-0.07267
0.036976
-0.073726
0.0385668
-0.0734102
0.039756
-0.0727017
0.0407562
-0.0719689
-0.071301
0.0416737
0.00476895
-0.00858377
0.0148449
-0.042335
0.022642
-0.0636289
0.0273139
-0.072667
0.0298368
-0.0751929
0.0312403
-0.0751295
0.0321306
-0.0743005
0.0327909
-0.073362
0.0333186
-0.0724966
-0.0716982
0.0337159
0.00587547
-0.0144592
0.0145705
-0.05103
0.0204114
-0.0694698
0.0234201
-0.0756758
0.0247947
-0.0765674
0.0254298
-0.0757646
0.0257574
-0.0746281
0.0259289
-0.0735335
0.0259768
-0.0725446
0.0259607
-0.0716821
-0.000972991
0.000972991
-0.00275887
0.00178588
-0.00489206
0.00213319
-0.00719517
0.00230311
-0.0096137
0.00241852
-0.0121395
0.00252577
-0.0147773
0.00263778
-0.0175354
0.00275813
-0.0204281
0.00289275
0.00305243
-0.0234806
-0.000837133
0.00181012
-0.00241436
0.00336311
-0.00432004
0.00403887
-0.00636854
0.00435161
-0.00848958
0.00453956
-0.0106632
0.0046994
-0.0128869
0.0048615
-0.0151631
0.00503435
-0.0174985
0.00522814
0.00546617
-0.0199123
-0.000594353
0.00240448
-0.00180031
0.00456906
-0.00328812
0.00552669
-0.00487155
0.00593504
-0.00645662
0.00612463
-0.00800144
0.00624421
-0.00948954
0.00634959
-0.0109144
0.00645924
-0.012269
0.00658275
0.00675666
-0.0135595
-0.000306151
0.00271063
-0.00104466
0.00530757
-0.00199556
0.00647759
-0.00298305
0.00692253
-0.00389149
0.00703307
-0.00465361
0.00700633
-0.00523331
0.00692929
-0.00561465
0.00684058
-0.00578359
0.00675169
0.00667589
-0.00570281
-3.9886e-05
0.00275051
-0.000306547
0.00557423
-0.000693494
0.00686453
-0.00105051
0.00727955
-0.00125476
0.00723732
-0.0012207
0.00697227
-0.000892049
0.00660064
-0.000233647
0.00618218
0.000778408
0.00573963
0.0052952
0.0021591
0.000144914
0.0026056
0.000257783
0.00546136
0.000362727
0.00675959
0.000569696
0.00707258
0.000990121
0.0068169
0.00171426
0.00624813
0.00281257
0.00550233
0.00433074
0.00466401
0.00628298
0.0037874
0.00253923
0.00903895
0.000211326
0.00239427
0.000537853
0.00513483
0.000973712
0.00632373
0.00159283
0.00645346
0.00248898
0.00592075
0.00375992
0.0049772
0.00551422
0.00374803
0.00785249
0.00232574
0.0106543
0.000985615
-0.00183178
0.0150253
0.000153103
0.00224117
0.000499971
0.00478797
0.00107123
0.00575247
0.00193981
0.00558488
0.0032254
0.00463516
0.0051041
0.00309849
0.00781714
0.00103498
0.0115618
-0.0014189
0.0161251
-0.00357771
-0.00888688
0.0231802
6.717e-07
0.0022405
0.000222417
0.00456622
0.000814709
0.00516018
0.00194433
0.00445526
0.00388652
0.00269297
0.00702002
-3.50086e-05
0.0117704
-0.00371543
0.0180814
-0.00772988
0.0264256
-0.0119219
-0.0190903
0.0366291
-0.000181142
-8.3118e-05
0.000652511
0.00245902
0.00590227
0.0115229
0.0195254
0.0293794
0.0422619
0.0535218
-0.0268701
0.0033895
-0.0300257
0.00315562
-0.0331063
0.00308064
-0.0360592
0.00295289
-0.0389052
0.002846
-0.0416265
0.00272124
-0.0442199
0.00259346
-0.0466745
0.00245456
-0.048984
0.00230948
-0.0511414
0.00215742
-0.0531425
0.00200113
-0.0549841
0.00184158
-0.0566647
0.00168061
-0.0581838
0.00151913
-0.0595417
0.00135784
-0.0607383
0.00119663
-0.0617736
0.00103531
-0.0626494
0.000875824
-0.0633724
0.000722999
-0.063936
0.000563547
-0.0643231
0.000387146
-0.0645105
0.000187348
-0.0644767
-3.37218e-05
-0.0642474
-0.000229332
-0.0637931
-0.000454264
-0.0630897
-0.000703414
-0.0621134
-0.000976324
-0.0608409
-0.00127248
-0.0592504
-0.00159049
-0.0573236
-0.00192682
-0.0550473
-0.0022763
-0.0524151
-0.00263222
-0.0494317
-0.00298341
-0.0461083
-0.00332343
-0.0424703
-0.003638
-0.0385533
-0.00391696
-0.0343997
-0.00415359
-0.0300552
-0.00434455
-0.0255843
-0.00447087
-0.021041
-0.00454331
-0.0164729
-0.0045681
-0.0119416
-0.00453126
-0.00748816
-0.00445347
-0.00313233
-0.00435583
0.00107724
-0.00420956
0.00511976
-0.00404253
0.00897835
-0.00385859
0.0126406
-0.00366227
0.0160992
-0.00345856
0.0193512
-0.00325199
0.0223976
-0.00304639
0.0252423
-0.00284477
0.0278918
-0.00264948
0.0303538
-0.002462
0.0326376
-0.00228375
0.0347531
-0.00211554
0.0367111
-0.001958
0.0385222
-0.00181111
0.0401972
-0.001675
0.0417463
-0.00154911
0.0431797
-0.00143338
0.0445066
-0.00132686
0.0457362
-0.00122959
0.0468764
-0.0011402
0.0479354
-0.00105908
0.0489198
-0.000984396
0.049837
-0.000917196
0.0506919
-0.000854879
0.0514915
-0.000799597
0.052239
-0.000747497
0.0529415
-0.000702498
0.0536002
-0.000658676
0.0542229
-0.000622758
0.0548084
-0.000585453
0.0553663
-0.00055789
0.0558917
-0.000525441
0.0563977
-0.000505992
0.0568745
-0.000476754
0.0573401
-0.000465661
-0.000437919
-0.0229286
0.00640583
-0.0257653
0.00599238
-0.0285163
0.0058316
-0.0311748
0.00561137
-0.0337398
0.00541103
-0.0361981
0.00517951
-0.0385402
0.0049356
-0.0407558
0.00467016
-0.0428364
0.00439005
-0.0447748
0.00409587
-0.0465659
0.00379217
-0.0482061
0.00348175
-0.0496935
0.00316808
-0.0510278
0.00285338
-0.0522092
0.00253922
-0.0532384
0.0022259
-0.0541161
0.00191299
-0.0548409
0.00160063
-0.0554143
0.00129639
-0.0558432
0.000992395
-0.056112
0.000655923
-0.0561921
0.000267453
-0.0560885
-0.000137252
-0.0557928
-0.000525038
-0.0552858
-0.000961308
-0.0545469
-0.00144232
-0.0535537
-0.00196949
-0.0522835
-0.00254273
-0.0507142
-0.00315972
-0.0488274
-0.00381361
-0.04661
-0.00449369
-0.0440534
-0.00518882
-0.0411647
-0.00587218
-0.0379521
-0.00653597
-0.0344386
-0.00715154
-0.0306594
-0.0076962
-0.0266634
-0.0081495
-0.0224796
-0.00852843
-0.0181873
-0.00876316
-0.0138355
-0.0088951
-0.00945685
-0.00894674
-0.00511977
-0.00886833
-0.000860592
-0.00871264
0.00325324
-0.00846967
0.00723552
-0.00819184
0.011055
-0.00786199
0.014692
-0.00749562
0.0181349
-0.00710512
0.0213772
-0.00670091
0.0244171
-0.00629192
0.0272564
-0.00588568
0.0298997
-0.00548804
0.0323539
-0.00510368
0.0346276
-0.00473571
0.0367303
-0.00438647
0.0386722
-0.00405737
0.0404638
-0.0037496
0.0421157
-0.00346307
0.0436387
-0.00319802
0.0450428
-0.00295323
0.0463381
-0.00272863
0.0475334
-0.00252219
0.0486379
-0.00233403
0.049659
-0.00216134
0.0506049
-0.00200501
0.0514817
-0.0018612
0.0522967
-0.00173219
0.0530544
-0.00161256
0.0537617
-0.00150691
0.0544214
-0.00140716
0.0550405
-0.00132165
0.0556198
-0.00123792
0.0561672
-0.0011702
0.0566808
-0.00109898
0.0571706
-0.00104769
0.0576308
-0.000985675
0.0580752
-0.000950445
0.0584929
-0.000894385
0.058903
-0.000875775
-0.000823297
-0.0158593
0.00870556
-0.0181027
0.00823586
-0.0202783
0.00800716
-0.0224206
0.00775362
-0.02451
0.00750049
-0.0265245
0.00719404
-0.0284514
0.00686243
-0.030278
0.00649681
-0.031993
0.00610501
-0.0335875
0.0056904
-0.0350544
0.00525901
-0.0363886
0.00481603
-0.0375873
0.00436678
-0.0386492
0.00391527
-0.0395744
0.00346437
-0.0403638
0.0030153
-0.0410186
0.00256777
-0.0415387
0.00212074
-0.0419169
0.00167466
-0.0421635
0.00123898
-0.0422793
0.000771733
-0.0422287
0.000216847
-0.0420384
-0.00032756
-0.041675
-0.000888454
-0.0411263
-0.00151
-0.0403754
-0.00219324
-0.0394019
-0.00294296
-0.0381835
-0.00376116
-0.0366974
-0.0046458
-0.0349229
-0.00558808
-0.0328458
-0.00657083
-0.0304579
-0.00757675
-0.0277656
-0.00856447
-0.0247765
-0.00952504
-0.0215063
-0.0104217
-0.0179848
-0.0112178
-0.0142845
-0.0118498
-0.0103458
-0.0124672
-0.00633959
-0.0127694
-0.00227792
-0.0129568
0.00172186
-0.0129465
0.00568283
-0.0128293
0.00956884
-0.0125986
0.013355
-0.0122558
0.0169944
-0.0118312
0.0204695
-0.0113371
0.0237654
-0.0107915
0.0268723
-0.010212
0.0297854
-0.00961405
0.032504
-0.00901055
0.0350308
-0.00841247
0.0373711
-0.00782831
0.0395323
-0.00726487
0.0415233
-0.0067267
0.0433541
-0.00621732
0.045035
-0.0057383
0.0465766
-0.00529115
0.0479891
-0.0048756
0.0492831
-0.00449197
0.0504682
-0.00413838
0.0515542
-0.00381467
0.0525498
-0.00351775
0.0534636
-0.00324777
0.0543027
-0.00300054
0.055075
-0.0027773
0.0557863
-0.00257242
0.0564432
-0.00238914
0.0570503
-0.00221961
0.0576137
-0.00207033
0.0581363
-0.00192982
0.0586244
-0.00180967
0.059079
-0.00169256
0.0595068
-0.00159796
0.059907
-0.00149925
0.0602873
-0.00142797
0.0606448
-0.00134313
0.0609886
-0.0012943
0.0613134
-0.0012192
0.061631
-0.0011933
-0.0011249
-0.00701148
0.0100142
-0.00843527
0.00965964
-0.0098902
0.00946209
-0.0113794
0.00924281
-0.0128889
0.00900999
-0.0143735
0.00867868
-0.0158176
0.00830645
-0.0172042
0.00788346
-0.0185181
0.00741893
-0.0197471
0.00691935
-0.0208803
0.00639222
-0.0219096
0.00584535
-0.0228292
0.00528639
-0.0236355
0.00472156
-0.0243267
0.00415554
-0.0249026
0.00359121
-0.0253641
0.00302924
-0.0257115
0.00246822
-0.0259421
0.00190518
-0.0260449
0.00134186
-0.0260444
0.000771172
-0.0259057
7.81504e-05
-0.0256608
-0.000572401
-0.0252664
-0.00128289
-0.0247169
-0.00205948
-0.0239979
-0.00291223
-0.0230911
-0.0038498
-0.0219755
-0.00487673
-0.0206289
-0.0059924
-0.019026
-0.007191
-0.0171463
-0.00845055
-0.0149877
-0.00973539
-0.0125267
-0.0110254
-0.00980681
-0.012245
-0.00683202
-0.0133965
-0.00360683
-0.014443
-0.000136455
-0.0153201
0.00321237
-0.015816
0.00672686
-0.0162839
0.0102995
-0.0165295
0.0139023
-0.0165493
0.0174685
-0.0163955
0.0209533
-0.0160835
0.0243288
-0.0156313
0.0275654
-0.0150678
0.0306452
-0.0144169
0.0335556
-0.0137019
0.0362886
-0.0129451
0.0388407
-0.0121661
0.0412118
-0.0113816
0.043405
-0.0106057
0.0454259
-0.00984915
0.0472817
-0.0091207
0.0489812
-0.00842615
0.0505338
-0.00776998
0.0519497
-0.00715414
0.0532389
-0.00658037
0.0544112
-0.00604796
0.0554765
-0.00555725
0.0564439
-0.00510574
0.0573224
-0.00469315
0.0581201
-0.00431547
0.0588451
-0.00397278
0.0595042
-0.00365968
0.0601045
-0.00337761
0.0606516
-0.00311944
0.0611514
-0.00288901
0.0616085
-0.00267664
0.0620281
-0.00248997
0.0624135
-0.00231518
0.0627696
-0.00216579
0.0630984
-0.00202141
0.0634049
-0.00190442
0.0636898
-0.00178419
0.0639582
-0.00169637
0.0642099
-0.00159483
0.0644503
-0.00153471
0.0646783
-0.00144713
0.0649
-0.00141506
-0.00133781
0.00203234
0.010141
0.00154894
0.010143
0.000903293
0.0101077
0.000136171
0.0100099
-0.000671365
0.00981753
-0.00154873
0.00955604
-0.00246176
0.00921949
-0.00338504
0.00880673
-0.00429751
0.0083314
-0.00518068
0.00780252
-0.00601731
0.00722885
-0.00679251
0.00662055
-0.00749373
0.00598761
-0.00811148
0.0053393
-0.00863968
0.00468375
-0.00907467
0.0040262
-0.00941447
0.00336903
-0.00965796
0.00271171
-0.00980324
0.00205046
-0.00984094
0.00137956
-0.00976693
0.000697159
-0.00961344
-7.53416e-05
-0.00933647
-0.000849366
-0.00893403
-0.00168533
-0.00839706
-0.00259645
-0.00771159
-0.0035977
-0.00686056
-0.00470083
-0.00582461
-0.00591267
-0.00458408
-0.00723293
-0.00311857
-0.0086565
-0.00139097
-0.0101782
0.000547669
-0.011674
0.00264185
-0.0131196
0.00497805
-0.0145812
0.00753394
-0.0159524
0.0102693
-0.0171784
0.0131331
-0.0181839
0.0162142
-0.0188971
0.0193416
-0.0194112
0.0224918
-0.0196796
0.0256401
-0.0196976
0.0287412
-0.0194965
0.0317616
-0.019104
0.034677
-0.0185467
0.0374656
-0.0178564
0.0401121
-0.0170634
0.0426061
-0.016196
0.0449415
-0.0152804
0.0471156
-0.0143402
0.0491289
-0.013395
0.0509848
-0.0124616
0.0526884
-0.0115528
0.0542466
-0.0106789
0.0556672
-0.00984676
0.0569589
-0.00906168
0.0581306
-0.00832586
0.0591915
-0.00764122
0.0601504
-0.00700682
0.0610158
-0.00642274
0.061796
-0.00588594
0.0624989
-0.005396
0.0631316
-0.00494816
0.0637012
-0.00454235
0.0642138
-0.00417228
0.0646755
-0.00383933
0.0650914
-0.00353536
0.0654668
-0.00326438
0.0658057
-0.00301555
0.0661127
-0.00279694
0.0663909
-0.00259344
0.0666444
-0.00241925
0.0668755
-0.00225258
0.0670878
-0.00211673
0.0672832
-0.00197959
0.0674648
-0.00187795
0.0676341
-0.00176414
0.067794
-0.00169461
0.0679458
-0.00159891
0.0680925
-0.00156178
-0.00147995
0.0100037
0.00917624
0.0105302
0.00961651
0.0107861
0.00985191
0.0108738
0.00992214
0.0107758
0.00991561
0.0105153
0.00981647
0.0101402
0.00959467
0.0096846
0.00926229
0.00917428
0.00884172
0.00863262
0.00834418
0.00808183
0.00777964
0.00754152
0.00716087
0.0070284
0.00650073
0.00655683
0.00581088
0.00613898
0.00510159
0.0057847
0.00438048
0.00550165
0.00365209
0.00529568
0.00291768
0.0051736
0.00217255
0.00514254
0.00141061
0.0052154
0.000624309
0.00537151
-0.000231458
0.00563918
-0.00111703
0.00602288
-0.00206903
0.00653021
-0.00310377
0.00717146
-0.00423896
0.00795935
-0.00548871
0.00890753
-0.00686086
0.0100289
-0.00835427
0.0113318
-0.00995939
0.0128131
-0.0116595
0.0145026
-0.0133635
0.0164317
-0.0150487
0.0185442
-0.0166937
0.020818
-0.0182261
0.0232206
-0.019581
0.0257314
-0.0206947
0.0283544
-0.0215201
0.0310155
-0.0220724
0.0336796
-0.0223437
0.0363212
-0.0223392
0.038911
-0.0220863
0.0414244
-0.0216174
0.0438427
-0.020965
0.0461501
-0.0201637
0.0483346
-0.0192479
0.0503887
-0.01825
0.0523079
-0.0171996
0.0540906
-0.0161229
0.055738
-0.0150424
0.0572533
-0.0139768
0.0586412
-0.0129407
0.0599079
-0.0119456
0.0610602
-0.010999
0.0621055
-0.0101069
0.0630513
-0.00927171
0.0639054
-0.00849531
0.0646751
-0.00777656
0.0653678
-0.00711538
0.0659901
-0.00650821
0.0665484
-0.00595437
0.0670489
-0.0054486
0.0674971
-0.00499057
0.0678982
-0.00457342
0.0682572
-0.00419832
0.0685784
-0.00385654
0.068866
-0.00355194
0.0691235
-0.00327308
0.0693545
-0.00302797
0.0695621
-0.00280098
0.069749
-0.00260622
0.069918
-0.00242155
0.0700714
-0.00227008
0.0702114
-0.00211962
0.07034
-0.00200656
0.0704593
-0.00188349
0.070571
-0.00180628
0.0706771
-0.00170496
0.0707791
-0.00166381
-0.00157938
0.0165651
0.00763637
0.0177221
0.00845955
0.0186792
0.00889478
0.0195036
0.00909772
0.020133
0.00928625
0.0205568
0.00939269
0.0208006
0.00935082
0.0208882
0.00917475
0.0208435
0.00888639
0.0206936
0.00849414
0.0204654
0.0080078
0.0201844
0.00744181
0.0198742
0.00681097
0.0195564
0.00612865
0.019251
0.00540701
0.0189756
0.00465586
0.0187462
0.00388152
0.0185758
0.00308806
0.0184755
0.00227292
0.0184552
0.00143087
0.0185202
0.000559305
0.0186741
-0.000385326
0.0189349
-0.00137784
0.0193114
-0.00244559
0.0198127
-0.00360508
0.0204469
-0.00487311
0.0212227
-0.00626456
0.0221484
-0.00778656
0.0232301
-0.00943595
0.0244682
-0.0111974
0.0258541
-0.0130454
0.0274098
-0.0149192
0.0291293
-0.0167681
0.0309792
-0.0185437
0.0329336
-0.0201805
0.0349672
-0.0216146
0.03706
-0.0227876
0.0391992
-0.0236593
0.0413501
-0.0242233
0.043487
-0.0244805
0.0455913
-0.0244435
0.047645
-0.02414
0.0496318
-0.0236043
0.0515386
-0.0228718
0.0533545
-0.0219796
0.0550712
-0.0209646
0.0566832
-0.019862
0.0581876
-0.018704
0.0595838
-0.0175191
0.0608732
-0.0163318
0.0620587
-0.0151624
0.0631446
-0.0140266
0.0641359
-0.0129368
0.0650381
-0.0119013
0.0658572
-0.0109261
0.0665993
-0.0100138
0.0672703
-0.00916629
0.067876
-0.00838225
0.068422
-0.00766135
0.0689135
-0.00699972
0.0693554
-0.00639634
0.0697525
-0.00584561
0.0701088
-0.00534694
0.0704285
-0.00489313
0.0707153
-0.00448507
0.0709725
-0.00411375
0.0712033
-0.00378273
0.0714106
-0.00348038
0.071597
-0.00321437
0.071765
-0.00296901
0.0719168
-0.002758
0.0720545
-0.0025593
0.07218
-0.00239549
0.0722951
-0.00223474
0.0724012
-0.0021127
0.0725003
-0.0019826
0.0725935
-0.00189946
0.0726826
-0.001794
0.0727686
-0.00174989
-0.00166363
0.0240673
0.00674927
0.0248376
0.00768922
0.0257259
0.0080065
0.0266798
0.00814388
0.0275872
0.00837882
0.0284081
0.00857177
0.0291135
0.00864543
0.0296783
0.0086099
0.0300961
0.00846865
0.0303745
0.00821571
0.0305287
0.00785361
0.0305785
0.007392
0.030547
0.00684252
0.0304586
0.00621704
0.0303382
0.00552737
0.03021
0.00478408
0.0300965
0.00399502
0.0300198
0.00316477
0.0299962
0.00229647
0.0300402
0.00138687
0.0301628
0.000436713
0.0303892
-0.000611731
0.0307103
-0.00169895
0.0311479
-0.00288318
0.031707
-0.00416415
0.0323906
-0.00555669
0.0332002
-0.00707422
0.0341344
-0.00872073
0.0351892
-0.0104908
0.0363595
-0.0123677
0.0376354
-0.0143213
0.0390129
-0.0162968
0.040478
-0.0182332
0.0420056
-0.0200712
0.043575
-0.0217499
0.0451689
-0.0232085
0.0467766
-0.0243952
0.0483913
-0.025274
0.0499999
-0.0258319
0.0515889
-0.0260696
0.0531482
-0.0260028
0.0546681
-0.0256599
0.0561385
-0.0250747
0.0575504
-0.0242837
0.0588961
-0.0233253
0.0601697
-0.0222381
0.061367
-0.0210594
0.0624861
-0.0198231
0.0635268
-0.0185599
0.0644904
-0.0172954
0.0653793
-0.0160513
0.0661968
-0.014844
0.0669465
-0.0136865
0.0676327
-0.0125874
0.0682595
-0.0115529
0.0688312
-0.0105855
0.0693519
-0.00968708
0.0698259
-0.00885617
0.0702568
-0.00809226
0.0706483
-0.00739129
0.071004
-0.00675198
0.0713269
-0.00616855
0.0716201
-0.00564016
0.0718865
-0.00515946
0.0721285
-0.00472708
0.0723487
-0.00433391
0.0725492
-0.00398325
0.0727322
-0.00366344
0.0728997
-0.00338181
0.0730534
-0.00312275
0.073195
-0.00289955
0.073326
-0.00269038
0.0734479
-0.00251733
0.073562
-0.0023489
0.0736695
-0.00222021
0.0737718
-0.00208487
0.0738698
-0.00199743
0.0739646
-0.00188884
0.0740575
-0.00184273
-0.00175507
0.0357768
0.00760158
0.0353208
0.00814522
0.0353142
0.00801312
0.0355081
0.00794999
0.0358635
0.00802335
0.0363567
0.00807859
0.0369171
0.008085
0.0374811
0.00804592
0.0380077
0.00794207
0.0384706
0.00775279
0.0388553
0.00746892
0.0391584
0.00708891
0.0393858
0.00661517
0.0395499
0.00605291
0.0396678
0.0054095
0.0397599
0.00469193
0.0398467
0.0039082
0.0399507
0.00306085
0.0400916
0.00215558
0.0402867
0.00119176
0.0405227
0.000200677
0.0408988
-0.000987804
0.0413353
-0.00213552
0.0418738
-0.00342164
0.0425138
-0.00480413
0.0432561
-0.00629904
0.0440962
-0.00791432
0.0450238
-0.00964834
0.0460242
-0.0114911
0.047078
-0.0134215
0.0481636
-0.0154069
0.0492659
-0.0173991
0.0503748
-0.0193421
0.051483
-0.0211795
0.0525835
-0.0228504
0.0536726
-0.0242976
0.0547514
-0.0254739
0.0558234
-0.0263461
0.0568877
-0.0268962
0.0579399
-0.0271217
0.0589758
-0.0270387
0.0599904
-0.0266745
0.0609772
-0.0260615
0.0619295
-0.0252361
0.0628419
-0.0242377
0.0637101
-0.0231064
0.0645317
-0.0218809
0.0653054
-0.0205969
0.0660315
-0.019286
0.0667109
-0.0179748
0.0673453
-0.0166856
0.0679364
-0.0154352
0.0684865
-0.0142366
0.0689977
-0.0130987
0.0694724
-0.0120275
0.0699127
-0.0110258
0.0703208
-0.0100952
0.0706989
-0.00923426
0.071049
-0.00844241
0.0713733
-0.00771555
0.0716736
-0.00705229
0.0719518
-0.0064468
0.0722098
-0.00589809
0.0724491
-0.00539883
0.0726716
-0.0049495
0.0728787
-0.00454102
0.0730719
-0.00417646
0.0732527
-0.00384426
0.0734223
-0.00355146
0.0735822
-0.0032826
0.0737333
-0.00305063
0.0738768
-0.00283395
0.0740138
-0.00265427
0.0741452
-0.0024803
0.0742719
-0.00234689
0.0743947
-0.00220771
0.0745146
-0.00211731
0.074632
-0.00200629
0.0747482
-0.0019589
-0.00187024
0.0517511
0.00937222
0.0508896
0.00900679
0.050082
0.00882063
0.0493813
0.00865076
0.048898
0.00850663
0.0486123
0.00836433
0.04848
0.00821724
0.0484677
0.00805824
0.0485417
0.00786802
0.0486688
0.00762568
0.0488218
0.007316
0.0489812
0.00692945
0.0491352
0.00646119
0.0492795
0.00590859
0.0494153
0.00527376
0.0495498
0.00455735
0.0496942
0.00376381
0.0498593
0.00289583
0.0500645
0.00195037
0.0503216
0.000934611
0.0506694
-0.000147113
0.0510259
-0.00134431
0.0514976
-0.00260718
0.0520449
-0.00396897
0.0526734
-0.00543261
0.0533779
-0.00700352
0.0541471
-0.0086836
0.0549665
-0.0104677
0.055818
-0.0123427
0.0566818
-0.0142853
0.0575371
-0.0162622
0.0583667
-0.0182287
0.0591568
-0.0201322
0.0598958
-0.0219185
0.0605785
-0.0235331
0.0612061
-0.0249252
0.0617847
-0.0260525
0.0623244
-0.0268858
0.0628377
-0.0274095
0.0633398
-0.0276238
0.0638383
-0.0275372
0.0643326
-0.0271688
0.0648201
-0.0265489
0.0652983
-0.0257143
0.0657658
-0.0247051
0.0662215
-0.0235621
0.0666653
-0.0223247
0.0670973
-0.0210289
0.0675177
-0.0197064
0.0679267
-0.0183838
0.0683242
-0.0170831
0.06871
-0.015821
0.0690838
-0.0146105
0.0694452
-0.01346
0.0697937
-0.012376
0.070129
-0.011361
0.0704507
-0.010417
0.070759
-0.00954248
0.0710537
-0.00873713
0.0713351
-0.007997
0.0716036
-0.00732079
0.0718597
-0.00670285
0.0721038
-0.00614221
0.0723367
-0.00563173
0.072559
-0.00517182
0.0727716
-0.0047536
0.0729751
-0.00437999
0.0731705
-0.00403963
0.0733583
-0.00373933
0.0735396
-0.00346388
0.0737149
-0.00322592
0.0738851
-0.00300412
0.0740507
-0.00281986
0.0742125
-0.00264212
0.074371
-0.00250542
0.0745269
-0.00236362
0.0746808
-0.00227114
0.0748328
-0.00215835
0.074984
-0.00211002
-0.00202038
0.0796201
0.012528
-0.0827759
0.0764058
0.0122211
0.0735047
0.0117217
0.0709542
0.0112013
0.0687866
0.0106742
0.0669923
0.0101586
0.0655361
0.00967343
0.0643851
0.00920924
0.0635107
0.00874248
0.0628831
0.00825327
0.0624713
0.00772775
0.0622457
0.00715511
0.0621781
0.00652876
0.0622453
0.00584137
0.0624278
0.00509125
0.0627106
0.00427463
0.0630852
0.00338914
0.063541
0.00244005
0.0640807
0.00141068
0.0647296
0.000285665
0.0654317
-0.000849141
0.0662166
-0.00212924
0.0670916
-0.00348214
0.068042
-0.00491939
0.0690626
-0.00645321
0.0701426
-0.00808359
0.0712648
-0.00980572
0.072407
-0.0116099
0.0735436
-0.0134793
0.0746462
-0.0153879
0.0756851
-0.017301
0.0766322
-0.0191758
0.0774631
-0.0209632
0.0781574
-0.0226128
0.0787003
-0.0240759
0.0790835
-0.0253084
0.079305
-0.0262741
0.0793682
-0.026949
0.0792805
-0.0273219
0.0790529
-0.0273962
0.0787025
-0.0271868
0.0782505
-0.0267168
0.0777193
-0.0260178
0.0771324
-0.0251274
0.0765125
-0.0240852
0.0758804
-0.02293
0.0752539
-0.0216982
0.0746472
-0.0204222
0.074071
-0.0191302
0.0735326
-0.0178454
0.0730361
-0.0165867
0.0725835
-0.0153683
0.0721743
-0.0142013
0.0718071
-0.0130929
0.0714793
-0.0120482
0.0711878
-0.0110695
0.070929
-0.0101582
0.0706997
-0.00931311
0.0704962
-0.00853367
0.0703155
-0.00781627
0.0701544
-0.00715975
0.0700104
-0.00655884
0.069881
-0.00601274
0.069764
-0.00551474
0.0696575
-0.00506534
0.06956
-0.00465616
0.0694701
-0.00429005
0.0693867
-0.00395623
0.0693087
-0.00366127
0.0692354
-0.00339063
0.069166
-0.0031565
0.0691002
-0.00293836
0.0690373
-0.00275688
0.0689772
-0.00258206
0.0689192
-0.00244742
0.0688637
-0.00230807
0.0688096
-0.00221712
0.0687577
-0.00210643
0.0687068
-0.00205911
-0.00197108
0.0931281
0.0142167
-0.0948168
0.0914757
0.0138735
0.0898132
0.0133841
0.0881672
0.0128473
0.0865675
0.0122739
0.0850443
0.0116818
0.0836281
0.0110897
0.0823425
0.0104948
0.081204
0.00988101
0.080223
0.00923427
0.0794049
0.0085459
0.0787495
0.00781046
0.078253
0.00702527
0.0779073
0.00618709
0.0777043
0.0052942
0.077634
0.00434497
0.0776872
0.00333594
0.0778596
0.00226763
0.0781365
0.00113379
0.0784811
-5.89603e-05
0.078966
-0.00133402
0.0795214
-0.00268463
0.0801544
-0.00411514
0.0808546
-0.00561954
0.0816055
-0.00720413
0.0823892
-0.0088673
0.0831842
-0.0106008
0.0839656
-0.0123913
0.0847057
-0.0142193
0.0853754
-0.0160576
0.0859457
-0.0178714
0.0863902
-0.0196202
0.0866863
-0.0212593
0.0868166
-0.0227431
0.0867702
-0.0240296
0.0865441
-0.0250823
0.086143
-0.025873
0.085579
-0.026385
0.084871
-0.0266139
0.0840427
-0.0265679
0.0831216
-0.0262657
0.0821377
-0.0257329
0.0811206
-0.0250007
0.0800974
-0.0241042
0.0790916
-0.0230794
0.078122
-0.0219604
0.0772027
-0.0207789
0.0763433
-0.0195628
0.0755492
-0.0183361
0.0748225
-0.0171187
0.0741628
-0.0159269
0.0735676
-0.0147732
0.0730334
-0.0136671
0.0725557
-0.0126152
0.0721298
-0.0116222
0.0717506
-0.0106903
0.0714133
-0.00982093
0.0711133
-0.00901309
0.0708461
-0.00826654
0.0706079
-0.00757808
0.070395
-0.0069468
0.0702041
-0.00636795
0.0700323
-0.0058409
0.069877
-0.00535949
0.069736
-0.00492431
0.0696074
-0.00452753
0.0694893
-0.00417195
0.0693804
-0.00384742
0.0692794
-0.00356025
0.0691854
-0.00329663
0.0690972
-0.00306827
0.0690144
-0.00285554
0.0689358
-0.00267833
0.0688615
-0.00250778
0.0687904
-0.00237626
0.0687227
-0.00224037
0.0686571
-0.00215159
0.0685944
-0.00204371
0.068533
-0.00199763
-0.00191142
0.0997328
0.0152428
-0.100759
0.0991353
0.0144711
0.098591
0.0139284
0.0980023
0.013436
0.0973626
0.0129135
0.0966867
0.0123578
0.0959958
0.0117806
0.0953087
0.0111818
0.0946407
0.010549
0.0940056
0.0098694
0.0934177
0.00913384
0.0928887
0.00833944
0.0924303
0.00748365
0.0920491
0.00656825
0.0917518
0.0055915
0.0915415
0.00455526
0.091418
0.00345944
0.0913826
0.00230302
0.0914156
0.00110083
0.0915235
-0.000166857
0.091728
-0.00153851
0.0919895
-0.00294612
0.0922989
-0.00442459
0.0926477
-0.00596833
0.0930175
-0.00757392
0.0933866
-0.00923641
0.0937316
-0.0109457
0.0940268
-0.0126865
0.0942453
-0.0144378
0.0943602
-0.0161724
0.0943464
-0.0178576
0.0941827
-0.0194566
0.0938536
-0.0209302
0.0933506
-0.0222401
0.0926731
-0.023352
0.0918285
-0.0242376
0.0908325
-0.024877
0.0897077
-0.0252602
0.0884819
-0.0253881
0.0871854
-0.0252713
0.0858487
-0.0249291
0.0845018
-0.0243859
0.0831715
-0.0236704
0.0818802
-0.0228129
0.0806453
-0.0218445
0.0794796
-0.0207947
0.0783912
-0.0196906
0.0773846
-0.0185562
0.0764611
-0.0174125
0.0756194
-0.016277
0.0748565
-0.0151641
0.0741683
-0.0140849
0.0735496
-0.0130485
0.0729952
-0.0120607
0.0724992
-0.0111262
0.072056
-0.0102472
0.0716604
-0.0094253
0.0713072
-0.00865984
0.0709915
-0.00795086
0.070709
-0.00729565
0.0704558
-0.00669357
0.0702283
-0.00614041
0.0700231
-0.00563576
0.0698376
-0.005174
0.0696692
-0.00475584
0.0695157
-0.00437402
0.069375
-0.00403132
0.0692458
-0.00371819
0.0691263
-0.00344073
0.0690155
-0.00318585
0.068912
-0.0029648
0.0688153
-0.00275883
0.0687241
-0.00258708
0.0686382
-0.00242185
0.0685562
-0.00229434
0.0684785
-0.00216266
0.0684036
-0.00207663
0.0683319
-0.00197203
0.0682617
-0.00192742
-0.00184346
0.102165
0.0152908
-0.102213
0.102272
0.014364
0.102413
0.0137867
0.102535
0.0133145
0.102611
0.012837
0.102641
0.0123284
0.102631
0.0117908
0.102588
0.0112244
0.102518
0.0106192
0.102423
0.00996398
0.10231
0.00924709
0.102185
0.00846497
0.102055
0.00761327
0.101929
0.00669431
0.101813
0.00570711
0.101715
0.00465371
0.101637
0.00353756
0.101581
0.00235835
0.101551
0.00113077
0.101545
-0.000160566
0.101563
-0.00155663
0.101596
-0.0029791
0.101631
-0.00445891
0.101657
-0.00599448
0.10166
-0.00757723
0.101622
-0.00919811
0.101521
-0.0108454
0.101338
-0.0125029
0.10105
-0.0141496
0.100637
-0.0157598
0.100083
-0.0173038
0.0993762
-0.0187497
0.0985108
-0.0200647
0.0974883
-0.0212176
0.0963175
-0.0221813
0.0950144
-0.0229345
0.093601
-0.0234636
0.0921039
-0.023763
0.0905518
-0.023836
0.0889741
-0.0236936
0.0873982
-0.0233532
0.085849
-0.0228368
0.0843477
-0.0221691
0.0829112
-0.0213764
0.0815517
-0.0204851
0.0802777
-0.0195207
0.0790939
-0.0185067
0.0780018
-0.0174642
0.0770008
-0.0164115
0.0760882
-0.0153644
0.0752599
-0.0143358
0.0745109
-0.0133359
0.0738357
-0.0123732
0.0732284
-0.0114533
0.072683
-0.0105809
0.0721938
-0.00975798
0.0717552
-0.00898668
0.0713619
-0.00826659
0.0710091
-0.00759805
0.0706923
-0.00697882
0.0704073
-0.00640857
0.0701505
-0.00588359
0.0699184
-0.00540371
0.0697082
-0.00496383
0.0695172
-0.0045648
0.0693431
-0.0041999
0.0691836
-0.00387188
0.0690373
-0.00357182
0.0689021
-0.0033056
0.0687771
-0.00306084
0.0686607
-0.00284834
0.0685521
-0.00265027
0.06845
-0.00248495
0.068354
-0.00232591
0.0682628
-0.00220311
0.0681764
-0.0020763
0.0680933
-0.00199347
0.0680138
-0.00189259
0.0679361
-0.00184967
-0.00176834
0.102429
0.0147306
-0.101869
0.102903
0.0138906
0.103408
0.0132817
0.103932
0.0127901
0.104438
0.0123309
0.104909
0.0118574
0.105344
0.0113558
0.105745
0.0108235
0.106111
0.0102531
0.10644
0.00963544
0.106728
0.0089588
0.106975
0.00821763
0.107182
0.00740661
0.107351
0.00652572
0.107483
0.00557511
0.107581
0.00455532
0.107648
0.00347073
0.107684
0.00232169
0.107697
0.00111809
0.107682
-0.000145023
0.107626
-0.00150097
0.107535
-0.00288833
0.107399
-0.00432285
0.107208
-0.00580307
0.10695
-0.0073197
0.106613
-0.00886132
0.106183
-0.0104149
0.105644
-0.0119641
0.104983
-0.013489
0.10419
-0.0149661
0.103255
-0.0163694
0.102177
-0.0176717
0.100958
-0.0188458
0.0996074
-0.0198666
0.0981387
-0.0207126
0.0965718
-0.0213676
0.0949302
-0.021822
0.0932396
-0.0220725
0.0915266
-0.022123
0.0898165
-0.0219835
0.0881325
-0.0216692
0.0864949