/*--------------------------------*- C++ -*----------------------------------*\
| =========                 |                                                 |
| \\      /  F ield         | OpenFOAM: The Open Source CFD Toolbox           |
|  \\    /   O peration     | Version:  4.1                                   |
|   \\  /    A nd           | Web:      www.OpenFOAM.org                      |
|    \\/     M anipulation  |                                                 |
\*---------------------------------------------------------------------------*/
FoamFile
{
    version     2.0;
    format      ascii;
    class       volVectorField;
    location    "6.3";
    object      U;
}
// * * * * * * * * * * * * * * * * * * * * * * * * * * * * * * * * * * * * * //

dimensions      [0 1 -1 0 0 0 0];

internalField   nonuniform List<vector> 
2000
(
(-0.0309871 0.0280993 5.27006e-20)
(0.0140998 0.0214393 0)
(0.152077 -0.0049438 8.48432e-20)
(0.361518 -0.0379916 3.80918e-20)
(0.613817 -0.0684297 -7.08927e-20)
(0.873315 -0.0924411 -9.49996e-20)
(1.11006 -0.108841 3.02325e-20)
(1.30357 -0.122959 0)
(1.45768 -0.125423 -2.31191e-20)
(1.54409 -0.146199 0)
(-0.022584 0.0194897 -2.6132e-20)
(0.0666304 -0.00282305 2.3296e-20)
(0.270345 -0.034374 -8.9395e-20)
(0.547662 -0.0632519 -1.19748e-19)
(0.845937 -0.0831639 -8.30356e-22)
(1.11755 -0.0943274 3.12446e-20)
(1.33516 -0.0995798 -2.93748e-20)
(1.49227 -0.103042 -2.53078e-20)
(1.59481 -0.102063 2.31188e-20)
(1.64433 -0.113461 3.80156e-20)
(-0.00668805 0.00918477 2.80478e-20)
(0.143379 -0.0272888 -2.62712e-20)
(0.424599 -0.057056 4.49585e-20)
(0.762348 -0.074122 -1.51195e-21)
(1.08012 -0.0795685 3.62587e-20)
(1.33238 -0.0785751 3.23654e-20)
(1.50799 -0.0757433 2.87068e-20)
(1.61621 -0.0745853 2.53079e-20)
(1.67468 -0.0728674 2.10483e-20)
(1.70299 -0.0815231 -1.81812e-20)
(0.0189831 -0.00231799 -7.17034e-22)
(0.247308 -0.0483648 -2.7876e-20)
(0.608589 -0.0671292 0)
(0.984053 -0.0670597 3.98717e-20)
(1.28931 -0.0587721 -3.86622e-20)
(1.49897 -0.0498155 0)
(1.62417 -0.0438902 0)
(1.68887 -0.0419905 0)
(1.71745 -0.041547 -2.10494e-20)
(1.72231 -0.0493822 3.44783e-20)
(0.0564905 -0.0136526 6.52443e-20)
(0.378063 -0.0606938 -1.26953e-23)
(0.807899 -0.0599415 2.59126e-20)
(1.18977 -0.0423109 2.10907e-20)
(1.45728 -0.0247689 1.88728e-20)
(1.61536 -0.013061 1.58051e-20)
(1.69488 -0.00783798 0)
(1.72739 -0.00755834 1.09772e-20)
(1.73532 -0.00986398 -4.51983e-20)
(1.73362 -0.0179586 5.87601e-20)
(0.107127 -0.0226684 -1.0186e-19)
(0.530059 -0.0586617 1.84707e-21)
(1.00395 -0.0340321 -5.1287e-20)
(1.36367 -0.00285003 4.59307e-20)
(1.58087 0.0182956 -5.43746e-20)
(1.68978 0.0285184 1.75245e-20)
(1.73337 0.0306522 0)
(1.74402 0.0278901 -1.09781e-20)
(1.74149 0.0226224 9.14316e-21)
(1.73443 0.0144744 2.58277e-20)
(0.170961 -0.0266097 0)
(0.692485 -0.038346 0)
(1.18085 0.00906821 -2.59252e-20)
(1.49959 0.0476862 2.41345e-20)
(1.66463 0.0673865 -1.7222e-20)
(1.73213 0.0731475 1.61692e-20)
(1.74983 0.0707362 2.22359e-20)
(1.74722 0.064261 -2.10183e-20)
(1.73877 0.0559559 -1.42884e-20)
(1.73045 0.0470059 6.87755e-21)
(0.246111 -0.0225928 1.94432e-20)
(0.851935 0.00110061 0)
(1.32898 0.0663001 -1.21361e-20)
(1.59797 0.106062 4.50016e-20)
(1.71531 0.120362 -2.80269e-20)
(1.75065 0.119742 0)
(1.75105 0.112023 0)
(1.74085 0.101462 0)
(1.73003 0.0901677 -1.18569e-20)
(1.7211 0.0801079 1.12706e-20)
(0.328602 -0.00828561 -9.97141e-21)
(0.996339 0.0576522 -3.82219e-22)
(1.44427 0.134123 -1.38873e-20)
(1.66223 0.169606 5.24602e-21)
(1.73928 0.175654 5.02868e-21)
(1.7512 0.167529 7.05693e-21)
(1.74083 0.154098 0)
(1.72691 0.139273 -1.55354e-21)
(1.71534 0.124999 -5.58397e-21)
(1.70664 0.113007 4.27616e-21)
(0.412888 0.0175457 0)
(1.11745 0.127685 -8.48905e-21)
(1.52611 0.209013 0)
(1.69657 0.236079 -2.97653e-21)
(1.74161 0.231981 -2.74937e-21)
(1.7375 0.215754 -3.11621e-21)
(1.72109 0.196403 0)
(1.70587 0.17717 1.55368e-21)
(1.69474 0.159834 1.08503e-21)
(1.68678 0.145396 3.80885e-22)
(-0.00996365 0.00933292 0)
(-0.0385792 0.0166572 -4.6833e-21)
(-0.0777461 0.0186384 0)
(-0.114126 0.018221 -6.12016e-21)
(-0.145105 0.0165917 -1.92897e-21)
(-0.170316 0.0143044 3.57749e-21)
(-0.189709 0.0116839 -3.3691e-21)
(-0.203537 0.00899024 3.17325e-21)
(-0.212451 0.00651355 4.10175e-23)
(-0.217867 0.00460491 2.7828e-21)
(-0.0114753 0.0267331 -1.48561e-20)
(-0.0390228 0.048017 9.2797e-21)
(-0.074396 0.05395 -8.78828e-21)
(-0.106018 0.052777 4.06119e-21)
(-0.131661 0.0479337 1.92099e-20)
(-0.150979 0.0410416 -7.2011e-21)
(-0.163895 0.0330436 0)
(-0.170528 0.0247276 -3.16258e-21)
(-0.171164 0.0170092 -2.96119e-21)
(-0.167404 0.011043 0)
(-0.0142181 0.0406112 9.91179e-21)
(-0.0399789 0.0738661 0)
(-0.0684738 0.0835492 2.65531e-20)
(-0.0913179 0.0817715 -3.31605e-20)
(-0.106993 0.0738565 7.81671e-21)
(-0.115288 0.062352 0)
(-0.116151 0.048696 0)
(-0.109634 0.0341315 0)
(-0.0954435 0.0202268 2.40638e-20)
(-0.0743749 0.00914889 -2.287e-20)
(-0.0176865 0.0496042 0)
(-0.0414884 0.0916586 -1.94696e-20)
(-0.0611905 0.104363 3.61483e-20)
(-0.0723333 0.101959 -1.68621e-20)
(-0.074406 0.0911348 1.58851e-20)
(-0.067497 0.075162 -4.47653e-20)
(-0.0516578 0.0557776 8.67541e-23)
(-0.0271424 0.034365 2.65022e-20)
(0.0061675 0.0128446 2.45014e-20)
(0.0512268 -0.00431786 -3.48734e-20)
(-0.021392 0.0535604 2.08958e-20)
(-0.0434511 0.10028 -3.99703e-20)
(-0.0535139 0.114469 -1.58548e-22)
(-0.0509915 0.110892 1.5228e-22)
(-0.0365155 0.0970532 1.60522e-20)
(-0.0106182 0.0767763 -4.55672e-20)
(0.0264439 0.0519984 0)
(0.0740304 0.0240318 -1.34827e-20)
(0.13123 -0.00532425 1.26314e-20)
(0.20791 -0.0297019 -4.69089e-20)
(-0.0250247 0.0533488 -2.79073e-22)
(-0.0454408 0.100109 4.04805e-20)
(-0.0453199 0.113345 1.8619e-20)
(-0.0273008 0.107258 1.78469e-20)
(0.0069933 0.0897235 1.62345e-20)
(0.0565625 0.0649585 1.52531e-20)
(0.120749 0.0353278 0)
(0.198653 0.0023936 1.34815e-20)
(0.283683 -0.0332386 3.73443e-20)
(0.403078 -0.0644748 -1.25105e-20)
(-0.0284487 0.0503825 7.45811e-23)
(-0.0464487 0.0926711 2.08755e-20)
(-0.0345695 0.101883 0)
(0.00221418 0.0913221 -3.48767e-20)
(0.061576 0.0689764 3.30636e-20)
(0.141928 0.0394433 0)
(0.241221 0.00547999 0)
(0.358028 -0.0301258 0)
(0.473987 -0.0689598 -2.549e-20)
(0.643295 -0.102484 -4.71343e-20)
(-0.031501 0.0459828 -2.28617e-20)
(-0.0445474 0.0798758 2.14151e-20)
(-0.016723 0.082025 3.93946e-20)
(0.0453597 0.0650721 5.45357e-22)
(0.13858 0.0371656 3.35206e-20)
(0.259385 0.0032591 3.12044e-20)
(0.401978 -0.0334775 2.91167e-20)
(0.562046 -0.0686979 2.71158e-20)
(0.709363 -0.106211 2.54867e-20)
(0.917758 -0.134415 -2.32641e-20)
(-0.0337002 0.0408759 -7.18282e-20)
(-0.0366575 0.0632683 -2.13094e-20)
(0.0150656 0.0560777 -7.91089e-20)
(0.113059 0.031791 -3.63342e-20)
(0.251673 -0.00102701 4.92406e-22)
(0.421872 -0.0369383 -3.08552e-20)
(0.610751 -0.072143 2.93718e-20)
(0.805805 -0.103425 -2.71124e-20)
(0.978835 -0.133664 2.48796e-20)
(1.18966 -0.150935 -4.61025e-20)
(-0.0340442 0.035069 4.83053e-20)
(-0.0186917 0.0436735 0)
(0.0688024 0.0263039 4.03467e-20)
(0.216192 -0.00428132 -8.73547e-23)
(0.410502 -0.0388061 5.91379e-22)
(0.631488 -0.0717883 3.11154e-20)
(0.856708 -0.0995537 -8.81185e-20)
(1.06446 -0.12362 0)
(1.24437 -0.140234 -2.4877e-20)
(1.40892 -0.150844 0)
(-0.221389 0.00324746 0)
(-0.223805 0.000856137 -2.53663e-21)
(-0.222812 -0.00190939 5.00172e-21)
(-0.218382 -0.00473907 -2.16012e-21)
(-0.210453 -0.00758459 0)
(-0.198936 -0.0104226 2.10037e-21)
(-0.183807 -0.013218 -2.11078e-21)
(-0.1651 -0.0159344 0)
(-0.142882 -0.0185493 0)
(-0.117253 -0.0210405 1.94329e-22)
(-0.0883326 -0.0233934 0)
(-0.0562716 -0.0255922 0)
(-0.0213099 -0.0275597 0)
(0.0164585 -0.0293349 0)
(0.0568332 -0.0310031 -1.27706e-22)
(0.0995592 -0.0325637 1.28368e-22)
(0.14462 -0.034091 0)
(0.191758 -0.0357232 -1.11593e-23)
(0.240414 -0.0374327 1.1218e-23)
(0.309167 -0.0395887 0)
(-0.163785 0.00716602 0)
(-0.163131 5.19031e-05 6.6479e-22)
(-0.159129 -0.00802608 0)
(-0.151732 -0.016273 9.27876e-21)
(-0.141166 -0.0245985 -9.02915e-21)
(-0.127341 -0.0329504 5.66096e-22)
(-0.1102 -0.0411872 -3.99159e-21)
(-0.0898016 -0.0490926 8.16703e-21)
(-0.0662436 -0.0566995 -6.55173e-21)
(-0.0396343 -0.0639247 3.54319e-21)
(-0.0100875 -0.0706892 2.57242e-21)
(0.0223873 -0.0769368 -4.46473e-21)
(0.0574924 -0.0826488 2.19866e-21)
(0.0949059 -0.0878094 9.34097e-22)
(0.134524 -0.0925385 -7.25035e-22)
(0.176161 -0.0968963 1.23953e-22)
(0.21965 -0.101061 8.47338e-23)
(0.265025 -0.105403 5.91808e-23)
(0.309953 -0.109899 -5.94678e-23)
(0.374926 -0.115674 -6.42897e-24)
(-0.0592185 0.00293168 -6.98491e-22)
(-0.0527063 -0.00804181 -6.65949e-22)
(-0.0429335 -0.0206256 -6.66781e-22)
(-0.0300825 -0.0336084 0)
(-0.014812 -0.0467112 -1.06676e-20)
(0.00304434 -0.0597614 8.33557e-21)
(0.0238901 -0.0725817 0)
(0.0474377 -0.0850694 -1.00288e-21)
(0.07334 -0.0970991 -4.47416e-22)
(0.101663 -0.108484 5.38351e-21)
(0.132294 -0.119064 -7.90803e-22)
(0.165101 -0.128743 -6.10056e-21)
(0.199877 -0.137571 -2.78934e-22)
(0.23639 -0.145475 -2.11148e-22)
(0.274428 -0.152525 -1.83998e-22)
(0.31381 -0.158849 3.20876e-22)
(0.35413 -0.164661 -3.35215e-22)
(0.396176 -0.170405 -2.95138e-22)
(0.434887 -0.176149 -4.36365e-23)
(0.492994 -0.183731 1.71914e-23)
(0.0799725 -0.0130347 -2.17769e-20)
(0.0948902 -0.0263135 5.85926e-22)
(0.111635 -0.0420209 1.38983e-21)
(0.131358 -0.0586301 2.13757e-20)
(0.152954 -0.0754346 1.89664e-21)
(0.176208 -0.092092 5.87113e-22)
(0.201261 -0.108475 -1.62066e-20)
(0.228096 -0.124572 9.89887e-21)
(0.256595 -0.140032 8.04007e-21)
(0.286646 -0.154605 -7.0216e-21)
(0.318108 -0.168089 7.96852e-22)
(0.350816 -0.180335 6.81355e-21)
(0.384585 -0.191278 2.76611e-22)
(0.419193 -0.200879 2.21581e-21)
(0.454416 -0.209222 -1.54247e-21)
(0.490155 -0.2164 -1.01288e-21)
(0.525652 -0.222711 8.87214e-22)
(0.562711 -0.228419 0)
(0.593968 -0.233831 1.13478e-22)
(0.642742 -0.240814 9.60855e-25)
(0.248191 -0.0398861 4.6263e-20)
(0.273186 -0.0545622 -2.11661e-20)
(0.296437 -0.0723393 2.26464e-20)
(0.32242 -0.0912483 0)
(0.350015 -0.110412 -1.27808e-21)
(0.37836 -0.129543 -1.91833e-20)
(0.407382 -0.148448 9.01574e-23)
(0.437117 -0.166867 1.35801e-21)
(0.467484 -0.184472 1.66769e-20)
(0.49833 -0.200956 8.83986e-22)
(0.529504 -0.216067 0)
(0.560816 -0.229594 -6.87882e-22)
(0.592121 -0.241447 0)
(0.623198 -0.251534 -4.90302e-22)
(0.65389 -0.260005 0)
(0.684163 -0.266819 0)
(0.713152 -0.272525 2.232e-22)
(0.743084 -0.276906 -2.47688e-22)
(0.76648 -0.280965 2.22018e-22)
(0.803403 -0.285168 -5.3596e-23)
(0.449554 -0.0741781 0)
(0.48188 -0.0899036 -1.45168e-21)
(0.50999 -0.109125 -4.47436e-20)
(0.539961 -0.129192 4.3364e-20)
(0.57123 -0.149369 -1.32468e-21)
(0.602517 -0.169577 0)
(0.633452 -0.189577 -1.83836e-20)
(0.664012 -0.208978 3.43122e-20)
(0.694115 -0.227386 -1.80705e-20)
(0.723561 -0.244433 -9.34705e-22)
(0.752206 -0.259831 -8.3732e-22)
(0.779812 -0.273309 -7.37328e-22)
(0.806351 -0.284796 0)
(0.831539 -0.29412 3.30991e-21)
(0.855503 -0.301587 -7.37739e-21)
(0.877997 -0.306913 3.09057e-21)
(0.898835 -0.311101 -2.59921e-22)
(0.919196 -0.31316 -1.78039e-22)
(0.934636 -0.315384 6.32379e-23)
(0.957355 -0.315583 -6.16381e-23)
(0.68805 -0.110819 4.71608e-20)
(0.721454 -0.126841 0)
(0.750365 -0.146589 -1.42312e-21)
(0.780416 -0.166729 2.75446e-21)
(0.811219 -0.186883 2.64608e-21)
(0.841425 -0.20712 1.25889e-21)
(0.870527 -0.227064 1.18806e-21)
(0.898335 -0.246215 -1.60278e-20)
(0.924688 -0.264154 1.91426e-20)
(0.949314 -0.280482 1.60085e-20)
(0.972136 -0.294915 -1.32952e-20)
(0.992854 -0.307136 1.46206e-21)
(1.01169 -0.317157 -4.68365e-21)
(1.02818 -0.324712 1.30002e-21)
(1.04309 -0.330339 4.76632e-21)
(1.05548 -0.333447 3.49961e-22)
(1.06683 -0.335618 -3.62182e-22)
(1.07567 -0.334934 4.85789e-22)
(1.08326 -0.335287 6.68801e-22)
(1.09059 -0.331453 3.28013e-23)
(0.952891 -0.142098 0)
(0.980412 -0.158076 -4.63988e-20)
(1.00493 -0.177227 4.76232e-20)
(1.03029 -0.196625 -1.37926e-21)
(1.05585 -0.216224 -2.61892e-21)
(1.08041 -0.235829 -1.25771e-21)
(1.10333 -0.254877 -2.34669e-21)
(1.12417 -0.27286 0)
(1.14272 -0.289397 -1.01402e-21)
(1.15866 -0.304088 -9.20262e-22)
(1.17213 -0.316704 -8.13669e-22)
(1.18277 -0.32693 -1.44133e-21)
(1.19122 -0.334901 0)
(1.19677 -0.34028 0)
(1.20106 -0.343839 -4.31947e-22)
(1.2021 -0.344697 -3.10431e-21)
(1.20363 -0.344958 2.15123e-21)
(1.20064 -0.341867 -1.80645e-22)
(1.20104 -0.340709 -3.44692e-22)
(1.19398 -0.333781 1.01324e-22)
(1.21179 -0.160928 4.80542e-20)
(1.23045 -0.177372 0)
(1.24765 -0.195558 0)
(1.26486 -0.214274 -4.21495e-20)
(1.28152 -0.233262 3.0244e-21)
(1.2967 -0.25184 7.7733e-20)
(1.30967 -0.269463 -3.64704e-20)
(1.31987 -0.285756 0)
(1.32724 -0.300426 0)
(1.3316 -0.313116 0)
(1.33341 -0.323693 4.12656e-22)
(1.33234 -0.331877 1.05043e-21)
(1.32952 -0.33792 8.98301e-21)
(1.32391 -0.341437 -8.66873e-21)
(1.31804 -0.343352 3.04485e-21)
(1.30878 -0.34257 -2.68835e-21)
(1.30197 -0.341512 0)
(1.28915 -0.336845 8.72304e-23)
(1.28411 -0.334733 1.01244e-22)
(1.26587 -0.325857 0)
(1.42927 -0.167755 -7.41224e-22)
(1.44375 -0.183875 -4.47914e-20)
(1.45325 -0.200441 4.4325e-20)
(1.45959 -0.217836 0)
(1.46405 -0.235151 3.84947e-20)
(1.46662 -0.251698 -7.43377e-20)
(1.46688 -0.26724 3.58688e-20)
(1.46447 -0.281544 0)
(1.45962 -0.294372 1.42548e-20)
(1.45231 -0.305389 -2.69568e-20)
(1.44328 -0.314507 1.31014e-20)
(1.43214 -0.321444 -3.38291e-22)
(1.42031 -0.326483 0)
(1.40636 -0.329193 -7.38965e-21)
(1.3934 -0.330521 9.9744e-21)
(1.37726 -0.329273 -2.87248e-21)
(1.36523 -0.327908 -1.65138e-21)
(1.3463 -0.32291 1.18269e-21)
(1.33821 -0.320618 5.33403e-22)
(1.3131 -0.311147 0)
(1.61372 -0.15181 0)
(1.60981 -0.167172 0)
(1.60028 -0.181175 0)
(1.58918 -0.195988 0)
(1.57864 -0.211357 0)
(1.56841 -0.226459 0)
(1.55772 -0.24075 0)
(1.54584 -0.253921 0)
(1.53286 -0.265872 0)
(1.51853 -0.276379 0)
(1.50357 -0.285432 0)
(1.48728 -0.292713 0)
(1.47118 -0.298496 0)
(1.45337 -0.302255 0)
(1.43725 -0.304881 0)
(1.41801 -0.30511 0)
(1.40358 -0.305217 0)
(1.38189 -0.301859 0)
(1.3721 -0.30073 0)
(1.34407 -0.292978 0)
(1.66325 -0.138126 0)
(1.66177 -0.15512 0)
(1.65115 -0.170815 0)
(1.63717 -0.186419 0)
(1.62351 -0.201921 0)
(1.61041 -0.216786 0)
(1.59704 -0.230603 0)
(1.58259 -0.243132 0)
(1.5672 -0.254332 0)
(1.55067 -0.264042 0)
(1.53379 -0.272309 0)
(1.51584 -0.278867 0)
(1.49833 -0.284013 0)
(1.47927 -0.287259 0)
(1.46212 -0.289472 0)
(1.44189 -0.289452 0)
(1.42669 -0.289353 0)
(1.40412 -0.285988 0)
(1.39382 -0.28476 0)
(1.36507 -0.277159 0)
(1.68724 -0.125303 0)
(1.68564 -0.142974 0)
(1.67449 -0.159417 0)
(1.65953 -0.174851 0)
(1.64481 -0.189477 0)
(1.63077 -0.203218 0)
(1.6166 -0.215919 0)
(1.60143 -0.227409 0)
(1.58539 -0.237658 0)
(1.56829 -0.24653 0)
(1.55096 -0.254102 0)
(1.53266 -0.260146 0)
(1.51489 -0.264956 0)
(1.49563 -0.268068 0)
(1.47835 -0.270283 0)
(1.45798 -0.270463 0)
(1.44272 -0.270582 0)
(1.42003 -0.267688 0)
(1.40974 -0.266697 0)
(1.38086 -0.259895 0)
(1.69523 -0.113372 0)
(1.69368 -0.130934 0)
(1.68305 -0.147298 0)
(1.66844 -0.162225 0)
(1.65378 -0.175992 0)
(1.6397 -0.188785 0)
(1.62555 -0.200614 0)
(1.61048 -0.211344 0)
(1.5946 -0.22093 0)
(1.57772 -0.229241 0)
(1.56066 -0.236361 0)
(1.54267 -0.242085 0)
(1.52527 -0.246694 0)
(1.50638 -0.249748 0)
(1.48948 -0.251989 0)
(1.46947 -0.252342 0)
(1.45454 -0.252634 0)
(1.4322 -0.250123 0)
(1.42212 -0.249331 0)
(1.39365 -0.243199 0)
(1.69548 -0.103104 0)
(1.69415 -0.11992 0)
(1.68448 -0.135668 0)
(1.67084 -0.149909 0)
(1.65682 -0.162877 0)
(1.64318 -0.174831 0)
(1.62945 -0.185865 0)
(1.61487 -0.195878 0)
(1.59954 -0.204828 0)
(1.58325 -0.21259 0)
(1.5668 -0.219253 0)
(1.54943 -0.224633 0)
(1.53264 -0.229004 0)
(1.51436 -0.231949 0)
(1.49804 -0.23416 0)
(1.47859 -0.23463 0)
(1.46415 -0.235045 0)
(1.44231 -0.232867 0)
(1.43256 -0.232247 0)
(1.40466 -0.226724 0)
(1.69388 -0.0943185 0)
(1.6926 -0.109995 0)
(1.68386 -0.124817 0)
(1.67126 -0.138235 0)
(1.65803 -0.150385 0)
(1.64498 -0.161517 0)
(1.63179 -0.171758 0)
(1.61779 -0.181047 0)
(1.60311 -0.189357 0)
(1.58748 -0.196571 0)
(1.57171 -0.202779 0)
(1.55499 -0.207813 0)
(1.53886 -0.211933 0)
(1.52121 -0.214751 0)
(1.50549 -0.216907 0)
(1.48662 -0.217459 0)
(1.47268 -0.217965 0)
(1.45138 -0.216075 0)
(1.44196 -0.215597 0)
(1.41466 -0.210622 0)
(1.69314 -0.0865081 0)
(1.69163 -0.100909 0)
(1.68357 -0.114665 0)
(1.6719 -0.12717 0)
(1.65942 -0.138473 0)
(1.64693 -0.148784 0)
(1.63424 -0.158245 0)
(1.62077 -0.166821 0)
(1.60667 -0.174501 0)
(1.59164 -0.181178 0)
(1.57647 -0.186938 0)
(1.56035 -0.191625 0)
(1.5448 -0.195485 0)
(1.52772 -0.198154 0)
(1.51254 -0.200227 0)
(1.49419 -0.200823 0)
(1.48071 -0.201382 0)
(1.4599 -0.199731 0)
(1.45077 -0.199364 0)
(1.42404 -0.194876 0)
(1.69391 -0.079348 0)
(1.69196 -0.0924606 0)
(1.68435 -0.10509 0)
(1.67343 -0.116625 0)
(1.6616 -0.127055 0)
(1.64959 -0.136549 0)
(1.63732 -0.145244 0)
(1.62428 -0.153123 0)
(1.61065 -0.160185 0)
(1.59612 -0.166333 0)
(1.58145 -0.171647 0)
(1.56582 -0.175983 0)
(1.55076 -0.17957 0)
(1.53416 -0.182069 0)
(1.51943 -0.184034 0)
(1.50153 -0.184643 0)
(1.48842 -0.185224 0)
(1.46804 -0.183775 0)
(1.45916 -0.183492 0)
(1.43292 -0.179443 0)
(1.696 -0.0726386 0)
(1.69351 -0.0844789 0)
(1.68617 -0.0959577 0)
(1.67584 -0.106494 0)
(1.66455 -0.116036 0)
(1.65294 -0.124717 0)
(1.64099 -0.132658 0)
(1.6283 -0.139853 0)
(1.61504 -0.146306 0)
(1.6009 -0.15193 0)
(1.58663 -0.1568 0)
(1.57141 -0.160781 0)
(1.55674 -0.164087 0)
(1.54053 -0.166404 0)
(1.52617 -0.168242 0)
(1.50863 -0.168842 0)
(1.49584 -0.169422 0)
(1.47581 -0.168146 0)
(1.46715 -0.167928 0)
(1.44133 -0.164281 0)
(1.69904 -0.0662073 0)
(1.69596 -0.0768079 0)
(1.68875 -0.0871432 0)
(1.67889 -0.0966743 0)
(1.66803 -0.105325 0)
(1.65673 -0.113198 0)
(1.64504 -0.120398 0)
(1.63261 -0.12692 0)
(1.61965 -0.132773 0)
(1.60583 -0.137879 0)
(1.59188 -0.142307 0)
(1.57698 -0.145933 0)
(1.56263 -0.148953 0)
(1.54673 -0.151079 0)
(1.53267 -0.152777 0)
(1.51543 -0.153353 0)
(1.50291 -0.153915 0)
(1.48317 -0.15279 0)
(1.47469 -0.152621 0)
(1.44922 -0.14935 0)
(1.70264 -0.0599226 0)
(1.69896 -0.0693308 0)
(1.6918 -0.0785491 0)
(1.68228 -0.0870851 0)
(1.67176 -0.0948507 0)
(1.66072 -0.101923 0)
(1.64924 -0.108391 0)
(1.63701 -0.114252 0)
(1.62428 -0.119515 0)
(1.61071 -0.124109 0)
(1.59703 -0.128099 0)
(1.58238 -0.13137 0)
(1.56829 -0.134102 0)
(1.55264 -0.136031 0)
(1.53883 -0.137581 0)
(1.52184 -0.13812 0)
(1.50953 -0.138651 0)
(1.49003 -0.137662 0)
(1.4817 -0.137531 0)
(1.45653 -0.134613 0)
(1.70648 -0.0537048 0)
(1.70221 -0.0619721 0)
(1.69503 -0.0701064 0)
(1.68578 -0.0776651 0)
(1.67554 -0.0845562 0)
(1.66469 -0.0908377 0)
(1.65337 -0.0965855 0)
(1.64131 -0.101795 0)
(1.62876 -0.106475 0)
(1.61539 -0.110564 0)
(1.60192 -0.11412 0)
(1.58749 -0.117038 0)
(1.5736 -0.11948 0)
(1.55816 -0.121208 0)
(1.54455 -0.122604 0)
(1.52776 -0.123098 0)
(1.51563 -0.12359 0)
(1.49634 -0.122724 0)
(1.48813 -0.122624 0)
(1.46322 -0.120043 0)
(1.71031 -0.047505 0)
(1.70549 -0.0546796 0)
(1.69825 -0.0617638 0)
(1.6892 -0.0683662 0)
(1.67918 -0.0743969 0)
(1.66849 -0.0798993 0)
(1.6573 -0.084937 0)
(1.64536 -0.0895046 0)
(1.63296 -0.0936117 0)
(1.61975 -0.0972019 0)
(1.60645 -0.100327 0)
(1.59219 -0.102893 0)
(1.57848 -0.105046 0)
(1.5632 -0.106571 0)
(1.54976 -0.107808 0)
(1.53313 -0.108252 0)
(1.52115 -0.108696 0)
(1.50203 -0.107947 0)
(1.49393 -0.107869 0)
(1.46923 -0.105613 0)
(1.71397 -0.0412886 0)
(1.70863 -0.047415 0)
(1.70132 -0.0534822 0)
(1.69241 -0.0591509 0)
(1.68257 -0.0643369 0)
(1.672 -0.069073 0)
(1.6609 -0.0734118 0)
(1.64907 -0.0773475 0)
(1.63678 -0.0808887 0)
(1.6237 -0.0839859 0)
(1.61054 -0.0866841 0)
(1.59641 -0.0889017 0)
(1.58284 -0.0907642 0)
(1.56771 -0.0920861 0)
(1.5544 -0.0931609 0)
(1.53791 -0.0935511 0)
(1.52605 -0.0939435 0)
(1.50708 -0.0933031 0)
(1.49906 -0.0932436 0)
(1.47454 -0.0913036 0)
(1.7173 -0.0350339 0)
(1.71151 -0.0401526 0)
(1.70411 -0.0452342 0)
(1.69531 -0.0499913 0)
(1.6856 -0.054349 0)
(1.67514 -0.0583315 0)
(1.66411 -0.061982 0)
(1.65235 -0.0652951 0)
(1.64015 -0.0682776 0)
(1.62718 -0.0708876 0)
(1.61412 -0.0731629 0)
(1.60011 -0.075034 0)
(1.58665 -0.0766074 0)
(1.57163 -0.0777253 0)
(1.55843 -0.0786364 0)
(1.54206 -0.0789696 0)
(1.5303 -0.0793063 0)
(1.51144 -0.0787705 0)
(1.50349 -0.0787253 0)
(1.47913 -0.0770938 0)
(1.7202 -0.0287309 0)
(1.71403 -0.0328773 0)
(1.70654 -0.0370007 0)
(1.69783 -0.0408664 0)
(1.68821 -0.0444108 0)
(1.67782 -0.0476521 0)
(1.66685 -0.0506245 0)
(1.65514 -0.0533233 0)
(1.64302 -0.0557539 0)
(1.63013 -0.0578819 0)
(1.61716 -0.0597379 0)
(1.60323 -0.0612651 0)
(1.58986 -0.0625503 0)
(1.57493 -0.0634643 0)
(1.56182 -0.0642105 0)
(1.54553 -0.064485 0)
(1.53386 -0.0647632 0)
(1.51509 -0.0643287 0)
(1.5072 -0.0642949 0)
(1.48296 -0.0629665 0)
(1.7226 -0.022384 0)
(1.71611 -0.0255868 0)
(1.70855 -0.0287742 0)
(1.69989 -0.0317645 0)
(1.69035 -0.0345079 0)
(1.68001 -0.0370179 0)
(1.66908 -0.0393207 0)
(1.65742 -0.0414125 0)
(1.64535 -0.043297 0)
(1.63252 -0.0449476 0)
(1.61961 -0.0463875 0)
(1.60575 -0.0475732 0)
(1.59245 -0.0485711 0)
(1.57758 -0.049282 0)
(1.56455 -0.0498622 0)
(1.54833 -0.0500774 0)
(1.53671 -0.0502946 0)
(1.51803 -0.0499595 0)
(1.51018 -0.0499345 0)
(1.48604 -0.0489055 0)
(1.72442 -0.0160132 0)
(1.7177 -0.018294 0)
(1.71007 -0.020561 0)
(1.70145 -0.0226866 0)
(1.69197 -0.0246367 0)
(1.68167 -0.0264218 0)
(1.67076 -0.0280604 0)
(1.65913 -0.02955 0)
(1.6471 -0.0308921 0)
(1.63431 -0.0320685 0)
(1.62146 -0.0330943 0)
(1.60765 -0.0339405 0)
(1.5944 -0.0346512 0)
(1.57958 -0.0351602 0)
(1.56659 -0.0355726 0)
(1.55043 -0.0357295 0)
(1.53886 -0.0358821 0)
(1.52023 -0.0356476 0)
(1.51242 -0.0356267 0)
(1.48834 -0.0348965 0)
(1.72561 -0.00957193 0)
(1.71874 -0.0109589 0)
(1.71109 -0.0123275 0)
(1.7025 -0.0136051 0)
(1.69305 -0.0147739 0)
(1.68278 -0.0158432 0)
(1.67189 -0.0168242 0)
(1.66028 -0.0177169 0)
(1.64827 -0.0185204 0)
(1.63551 -0.0192262 0)
(1.62269 -0.0198395 0)
(1.60891 -0.0203485 0)
(1.5957 -0.0207719 0)
(1.58092 -0.021081 0)
(1.56796 -0.0213231 0)
(1.55183 -0.0214249 0)
(1.54029 -0.0215069 0)
(1.5217 -0.021379 0)
(1.5139 -0.0213532 0)
(1.48988 -0.0209274 0)
(1.72615 -0.00305811 0)
(1.71923 -0.00356272 0)
(1.71157 -0.00404753 0)
(1.70301 -0.00449242 0)
(1.69359 -0.00489455 0)
(1.68333 -0.00525946 0)
(1.67245 -0.00559213 0)
(1.66085 -0.00589389 0)
(1.64886 -0.00616424 0)
(1.63611 -0.00640177 0)
(1.6233 -0.0066069 0)
(1.60955 -0.00677826 0)
(1.59634 -0.00691874 0)
(1.58158 -0.00702403 0)
(1.56864 -0.00710246 0)
(1.55254 -0.0071403 0)
(1.541 -0.00716291 0)
(1.52244 -0.00712675 0)
(1.51464 -0.00711121 0)
(1.49065 -0.0069757 0)
(1.68104 0.128809 -3.72154e-22)
(1.69992 0.103337 0)
(1.71378 0.0767126 2.77924e-22)
(1.72373 0.0490672 8.78106e-21)
(1.72841 0.0206459 -2.64688e-20)
(1.73013 -0.00801751 0)
(1.72715 -0.0374017 -3.3301e-20)
(1.71144 -0.0665208 0)
(1.7073 -0.0957944 -3.97612e-20)
(1.61187 -0.131025 6.11001e-22)
(1.67777 0.114393 -7.76196e-23)
(1.69469 0.0920879 -1.37962e-22)
(1.70797 0.0685672 1.38237e-22)
(1.71588 0.0445702 -2.03956e-21)
(1.72287 0.0192395 8.35372e-21)
(1.71987 -0.00600081 6.88823e-22)
(1.72813 -0.0320195 0)
(1.70274 -0.0597782 2.77276e-20)
(1.72622 -0.0825674 0)
(1.65803 -0.119029 3.33803e-20)
(1.67843 0.100485 3.44066e-22)
(1.692 0.0805956 0)
(1.70519 0.0595596 1.55246e-22)
(1.70895 0.0380265 -2.03333e-21)
(1.71937 0.0158502 -9.05242e-21)
(1.71 -0.00753666 0)
(1.72554 -0.0288407 -1.98142e-20)
(1.69713 -0.0563305 -2.835e-20)
(1.72145 -0.0734383 0)
(1.68176 -0.107379 -3.30413e-20)
(1.68146 0.0883796 -2.43686e-22)
(1.69188 0.0703252 4.15617e-22)
(1.70518 0.0519212 0)
(1.7053 0.0320994 -5.20951e-21)
(1.71738 0.0134376 -4.39813e-22)
(1.70529 -0.00889176 9.78003e-22)
(1.72046 -0.0258573 1.93503e-20)
(1.69736 -0.0522357 6.28569e-22)
(1.71195 -0.0665424 2.20428e-20)
(1.69022 -0.096296 0)
(1.68576 0.0777135 0)
(1.69402 0.0612259 -4.27728e-22)
(1.70671 0.0454326 6.14568e-23)
(1.70534 0.0269966 -2.84683e-22)
(1.71621 0.0114417 2.30171e-22)
(1.70547 -0.00959889 4.33601e-22)
(1.71552 -0.0237996 1.27766e-20)
(1.69957 -0.0478032 1.11546e-21)
(1.70523 -0.0612501 -3.90777e-21)
(1.69117 -0.086969 -2.09093e-20)
(1.6907 0.0682262 7.24897e-22)
(1.6979 0.0531762 5.37834e-23)
(1.709 0.0395693 -6.69184e-22)
(1.708 0.0225687 -1.22169e-23)
(1.71598 0.00918047 2.48912e-21)
(1.70816 -0.0100447 0)
(1.7128 -0.0228944 -1.41204e-20)
(1.70161 -0.0440163 4.21104e-22)
(1.7023 -0.057081 -3.38097e-20)
(1.69036 -0.0794067 3.8226e-20)
(1.69602 0.0596934 -7.28463e-22)
(1.70282 0.0460833 -1.11246e-21)
(1.71193 0.0341344 6.09469e-22)
(1.71194 0.0187583 -4.84391e-22)
(1.71705 0.00674888 -1.17569e-21)
(1.71163 -0.0103587 2.78419e-21)
(1.71279 -0.022451 -3.32175e-22)
(1.70373 -0.0408597 7.32431e-22)
(1.70236 -0.0533135 1.48656e-20)
(1.6906 -0.072918 -1.73514e-20)
(1.70164 0.0519907 0)
(1.70821 0.0398386 2.5941e-21)
(1.71553 0.029156 -1.83033e-22)
(1.71632 0.0154952 -2.63858e-22)
(1.71942 0.00449102 -1.11397e-21)
(1.71532 -0.0105261 -4.23114e-21)
(1.71483 -0.021877 2.70297e-21)
(1.70651 -0.0379932 0)
(1.70439 -0.0495931 0)
(1.69248 -0.0670192 0)
(1.70744 0.0450572 0)
(1.7137 0.0343216 -2.77909e-21)
(1.71967 0.0246993 -1.51937e-22)
(1.72079 0.012687 7.49469e-22)
(1.72275 0.00260148 -1.42998e-22)
(1.71919 -0.0105517 1.73e-21)
(1.71803 -0.0210368 -3.15813e-21)
(1.71004 -0.0352657 1.7905e-22)
(1.70751 -0.0459177 0)
(1.69568 -0.0615069 -4.70354e-21)
(1.71327 0.0388413 1.22057e-22)
(1.71909 0.029425 1.63588e-21)
(1.72413 0.02078 2.2564e-21)
(1.72525 0.0102609 -1.37484e-23)
(1.72659 0.00110737 1.31915e-22)
(1.72323 -0.0104428 -2.9257e-22)
(1.72176 -0.0199841 -1.02569e-21)
(1.71407 -0.0326105 1.15342e-22)
(1.7112 -0.0422868 0)
(1.69978 -0.056234 8.30291e-21)
(1.71897 0.0332802 0)
(1.72429 0.0250668 1.94291e-21)
(1.72865 0.0173664 3.58676e-22)
(1.72965 0.00817732 0)
(1.73058 -2.67389e-05 0)
(1.72737 -0.0101771 3.26361e-22)
(1.72565 -0.0187473 8.73657e-22)
(1.71837 -0.0299394 1.19927e-22)
(1.71517 -0.0386317 -3.2026e-23)
(1.70437 -0.0510648 -3.69479e-21)
(1.72437 0.0283017 0)
(1.72922 0.021183 -3.82701e-21)
(1.73304 0.014405 -3.32506e-21)
(1.7339 0.00641522 3.97165e-22)
(1.73452 -0.000839295 -2.29062e-22)
(1.73147 -0.00972256 -5.96571e-23)
(1.72952 -0.0173212 4.9345e-23)
(1.72272 -0.0271806 -2.29476e-22)
(1.71919 -0.0348993 -1.2732e-22)
(1.70914 -0.0459118 5.87771e-23)
(1.72937 0.0238344 0)
(1.73381 0.0177199 2.1092e-21)
(1.73717 0.011838 -1.86939e-22)
(1.73793 0.00495321 1.85392e-22)
(1.73827 -0.00136595 0)
(1.73541 -0.00906739 0)
(1.73324 -0.0157093 0)
(1.72695 -0.0243066 3.06049e-22)
(1.7231 -0.0310729 -4.88773e-22)
(1.71381 -0.0407294 0)
(1.73389 0.0198259 0)
(1.73796 0.0146408 1.43945e-21)
(1.74095 0.00962259 1.6371e-21)
(1.74163 0.00377215 1.78013e-21)
(1.74172 -0.00163635 -3.04028e-22)
(1.73907 -0.0082171 1.38271e-21)
(1.7367 -0.0139252 -8.10363e-22)
(1.7309 -0.0213125 0)
(1.72676 -0.0271477 5.41939e-22)
(1.71821 -0.0354892 6.60332e-22)
(1.73786 0.0161705 -3.6989e-22)
(1.74163 0.0118749 -1.18499e-21)
(1.74429 0.00769869 -2.1223e-21)
(1.74493 0.00283418 -1.25962e-21)
(1.74482 -0.00168807 0)
(1.74237 -0.0071922 -1.693e-21)
(1.73982 -0.0119883 1.21698e-21)
(1.73447 -0.018202 -1.01509e-22)
(1.73007 -0.0231235 1.96542e-22)
(1.72219 -0.0301749 -7.19779e-22)
(1.74124 0.0127956 3.71791e-22)
(1.74477 0.00936737 -9.88397e-22)
(1.74717 0.00601489 7.6186e-22)
(1.74778 0.00210017 -1.67411e-21)
(1.74749 -0.00155777 0)
(1.74522 -0.00601754 0)
(1.74252 -0.00991985 1.30046e-22)
(1.73757 -0.0149847 -1.06826e-21)
(1.73295 -0.0190068 -1.97002e-22)
(1.72565 -0.0247816 8.15902e-23)
(1.74401 0.00968929 0)
(1.74735 0.00709162 1.57841e-21)
(1.74953 0.00453457 -5.04801e-22)
(1.75012 0.00153621 1.53302e-21)
(1.74969 -0.00127947 3.78939e-22)
(1.74757 -0.00472154 -2.18363e-22)
(1.74476 -0.00774697 3.64369e-22)
(1.74012 -0.0116809 7.1728e-22)
(1.73532 -0.0148159 0)
(1.7285 -0.0193198 0)
(1.74613 0.00680171 0)
(1.74931 0.00500058 6.69161e-22)
(1.75133 0.00321589 -1.08711e-21)
(1.7519 0.00110853 0)
(1.75138 -0.000883282 -7.13371e-22)
(1.74937 -0.00333057 -2.34401e-22)
(1.74648 -0.00549518 -5.76684e-22)
(1.74208 -0.00831573 -1.09475e-22)
(1.73714 -0.010576 7.54217e-23)
(1.73066 -0.0138166 2.97918e-23)
(1.74756 0.00408226 0)
(1.75064 0.00305972 -6.72379e-22)
(1.75254 0.00204492 -5.38975e-22)
(1.75309 0.000823928 6.6638e-22)
(1.75251 -0.000344787 3.08802e-22)
(1.75057 -0.00180504 2.81927e-22)
(1.74763 -0.00311314 9.81142e-22)
(1.74339 -0.00483124 -5.87151e-22)
(1.73835 -0.00622663 1.16147e-22)
(1.7321 -0.00821789 0)
(1.74826 0.00128315 0)
(1.75128 0.00105612 3.16931e-22)
(1.75313 0.000821731 -2.90073e-22)
(1.75368 0.000497282 2.5762e-22)
(1.75306 0.000165418 0)
(1.75116 -0.000291085 -2.83344e-22)
(1.74818 -0.00072252 1.84407e-22)
(1.74402 -0.00131535 1.16317e-22)
(1.73891 -0.00182211 0)
(1.73275 -0.00254314 0)
(1.18577 0.317357 0)
(1.15795 0.348729 -4.32575e-20)
(1.13785 0.388449 0)
(1.12226 0.437829 -1.4158e-19)
(1.10839 0.496681 5.63445e-20)
(1.09486 0.567106 2.79102e-21)
(1.07946 0.650182 3.79484e-20)
(1.04326 0.734288 -1.02213e-20)
(0.912173 0.752484 0)
(0.527055 0.472214 2.60761e-20)
(1.24883 0.318267 7.75582e-20)
(1.22539 0.356448 4.32558e-20)
(1.21225 0.395104 -3.8161e-20)
(1.20282 0.443127 4.78064e-20)
(1.1951 0.50135 -3.43168e-20)
(1.1891 0.57095 9.87009e-21)
(1.18234 0.652289 -4.14242e-20)
(1.15251 0.731942 -7.38582e-20)
(1.01475 0.741562 -1.93542e-20)
(0.583179 0.453748 -3.65035e-20)
(1.31119 0.313619 -3.17177e-20)
(1.29448 0.353147 3.21261e-20)
(1.28674 0.39107 3.81593e-20)
(1.28195 0.438349 3.79645e-20)
(1.27979 0.495807 3.71953e-20)
(1.28103 0.563813 3.53896e-20)
(1.28207 0.641876 1.14676e-20)
(1.25658 0.71438 2.54389e-20)
(1.10871 0.713363 1.42907e-21)
(0.628972 0.422549 -1.52551e-21)
(1.37483 0.305447 6.36209e-20)
(1.36355 0.344083 -3.21245e-20)
(1.35959 0.380394 0)
(1.35853 0.42592 0)
(1.36141 0.481328 0)
(1.3692 0.546406 1.71433e-20)
(1.37662 0.619475 -7.17366e-21)
(1.35243 0.682282 0)
(1.19032 0.6692 -6.48914e-21)
(0.6607 0.380273 1.63037e-20)
(1.43611 0.293235 -8.67919e-21)
(1.42932 0.329735 3.78171e-20)
(1.42859 0.363996 0)
(1.43104 0.406973 0)
(1.43858 0.459075 6.02329e-21)
(1.45198 0.519847 3.31014e-21)
(1.46374 0.586624 9.91001e-21)
(1.43742 0.636828 -6.53589e-21)
(1.25402 0.610244 -2.82503e-20)