/*--------------------------------*- C++ -*----------------------------------*\
| =========                 |                                                 |
| \\      /  F ield         | OpenFOAM: The Open Source CFD Toolbox           |
|  \\    /   O peration     | Version:  4.1                                   |
|   \\  /    A nd           | Web:      www.OpenFOAM.org                      |
|    \\/     M anipulation  |                                                 |
\*---------------------------------------------------------------------------*/
FoamFile
{
    version     2.0;
    format      ascii;
    class       surfaceScalarField;
    location    "10.3";
    object      phi;
}
// * * * * * * * * * * * * * * * * * * * * * * * * * * * * * * * * * * * * * //

dimensions      [0 3 -1 0 0 0 0];

internalField   nonuniform List<scalar> 
3890
(
0.000192833
0.00232761
-0.00252045
0.00186496
0.00143829
-0.00311042
0.0057503
-0.00317138
-0.000713957
0.0122841
-0.0104416
0.00390786
0.0214268
-0.0192743
0.0101316
0.032658
-0.0285285
0.0172973
0.0451584
-0.0372665
0.0247661
0.0582301
-0.0449145
0.0318427
0.0711406
-0.0515677
0.0386572
-0.0559833
0.0441279
0.0829961
0.000450901
0.00187671
0.00306008
-0.00117089
0.0086318
-0.0087431
0.0173015
-0.0191113
0.0283926
-0.0303654
0.0407618
-0.0408978
0.0532815
-0.0497862
0.0651591
-0.056792
0.0756221
-0.0620307
-0.0656239
0.0852627
0.000832304
0.00104441
0.00463936
-0.00497794
0.012049
-0.0161528
0.0224641
-0.0295264
0.0343932
-0.0422945
0.0463134
-0.052818
0.057203
-0.0606758
0.0665931
-0.0661821
0.0745244
-0.069962
-0.0725836
0.0814841
0.00133081
-0.000286396
0.0065018
-0.0101489
0.0155223
-0.0251733
0.0267288
-0.0407329
0.0380812
-0.0536469
0.0482297
-0.0629665
0.0566914
-0.0691375
0.0636186
-0.0731093
0.0694396
-0.075783
-0.077764
0.07462
0.00192866
-0.00221506
0.00844276
-0.016663
0.0184024
-0.035133
0.0292004
-0.0515308
0.0388856
-0.0633321
0.046744
-0.0708249
0.0529351
-0.0753286
0.0579757
-0.0781499
0.0623847
-0.080192
-0.0820075
0.0666281
0.00259474
-0.0048098
0.0101554
-0.0242237
0.0201157
-0.0450933
0.0295496
-0.0609647
0.0371366
-0.0709192
0.042861
-0.0765493
0.047269
-0.0797366
0.0509549
-0.0818358
0.0543631
-0.0836002
-0.0853431
0.0576987
0.00325538
-0.00806518
0.0113162
-0.0322845
0.0204166
-0.0541937
0.02802
-0.0685681
0.0335733
-0.0764725
0.0375326
-0.0805086
0.040568
-0.0827721
0.0432012
-0.0844689
0.0457205
-0.0861196
-0.0878736
0.048251
0.00380505
-0.0118702
0.0117152
-0.0401946
0.0194086
-0.0618871
0.0251082
-0.0742676
0.0288805
-0.0802449
0.0314116
-0.0830397
0.0333403
-0.0847008
0.0350572
-0.0861858
0.0367378
-0.0878002
-0.0895636
0.0384278
0.00413765
-0.0160079
0.0113124
-0.0473693
0.0173761
-0.0679508
0.0213021
-0.0781937
0.0235669
-0.0825097
0.0249172
-0.0843899
0.025887
-0.0856706
0.0267438
-0.0870426
0.0275739
-0.0886303
-0.090384
0.0283943
0.00418839
-0.0201963
0.0102406
-0.0534215
0.0146463
-0.0723565
0.0169966
-0.080544
0.0179861
-0.0834991
0.018317
-0.0847208
0.0184021
-0.0857557
0.0184113
-0.0870518
0.0183854
-0.0886044
0.0183245
-0.0903231
-0.000790659
0.000790659
-0.00236262
0.00157196
-0.00434151
0.00197888
-0.00653875
0.00219724
-0.00886372
0.00232497
-0.0112822
0.0024185
-0.0137916
0.00250938
-0.0164064
0.00261481
-0.0191547
0.0027483
0.00292551
-0.0220802
-0.000697264
0.00148792
-0.0020994
0.0029741
-0.00386579
0.00374528
-0.0058061
0.00413755
-0.00781909
0.00433796
-0.00985624
0.00445565
-0.0119002
0.00455331
-0.0139532
0.00466784
-0.0160322
0.0048273
0.00507172
-0.0181784
-0.000533662
0.00202158
-0.00163912
0.00407955
-0.00302353
0.00512969
-0.0045028
0.00561682
-0.00596257
0.00579772
-0.00733174
0.00582483
-0.00856722
0.00578878
-0.00964818
0.0057488
-0.0105711
0.00575022
0.00585652
-0.0113559
-0.000343827
0.00236541
-0.00108589
0.00482162
-0.00199175
0.00603554
-0.00289043
0.00651551
-0.00365999
0.00656728
-0.00420953
0.00637438
-0.00446675
0.00604599
-0.004378
0.00566005
-0.00390839
0.00528061
0.00501644
-0.00306831
-0.000172437
0.00253785
-0.000553154
0.00520234
-0.000958155
0.00644054
-0.00123345
0.0067908
-0.00125722
0.00659104
-0.000927419
0.00604458
-0.000150184
0.00526876
0.00116855
0.00434132
0.0031147
0.00333446
0.0023942
0.00573694
-5.33616e-05
0.00259121
-0.000124838
0.00527381
-5.76961e-05
0.0063734
0.000296071
0.00643703
0.00106359
0.00582352
0.00235916
0.00474901
0.00429438
0.00333354
0.00697848
0.00165722
0.0105001
-0.000187142
-0.00234343
0.0152377
1.31238e-06
0.0025899
0.000166435
0.00510869
0.000675181
0.00586466
0.00169586
0.00541635
0.00338491
0.00413447
0.00589127
0.00224265
0.00934289
-0.000118074
0.0138613
-0.00286121
0.019424
-0.00574986
-0.00966082
0.0267414
7.56817e-06
0.00258233
0.000373056
0.0047432
0.0013555
0.00488221
0.00318738
0.00358446
0.00609132
0.00123054
0.0102627
-0.00192872
0.0158399
-0.00569529
0.0228473
-0.00986862
0.0311383
-0.0140409
-0.0198363
0.0413139
8.24575e-06
0.00257408
0.000621415
0.00413003
0.00223643
0.0032672
0.00519337
0.000627523
0.00978514
-0.00336123
0.0161856
-0.00832915
0.024411
-0.0139207
0.0342287
-0.0196863
0.0455113
-0.0253235
-0.0319913
0.0576663
5.36361e-05
0.00107325
0.00362649
0.00816187
0.0149323
0.0239004
0.0347459
0.0469022
0.060236
0.0723725
-0.0240053
0.00192504
-0.0259214
0.00191617
-0.0278005
0.00187912
-0.0296305
0.00182995
-0.0313962
0.00176569
-0.0330794
0.00168322
-0.0346595
0.00158008
-0.036114
0.00145451
-0.0374195
0.00130554
-0.0385528
0.00113323
-0.0394915
0.00093873
-0.0402142
0.000722748
-0.0407016
0.00048732
-0.0409369
0.000235364
-0.0409077
-2.91887e-05
-0.0406328
-0.000274914
-0.0401283
-0.000504559
-0.0394207
-0.000707531
-0.0385352
-0.000885548
-0.00101213
-0.0198461
0.00359273
-0.021532
0.00360205
-0.0232066
0.0035537
-0.0248605
0.0034839
-0.0264825
0.0033877
-0.0280579
0.00325863
-0.0295693
0.00309146
-0.0309969
0.00288205
-0.0323189
0.0026276
-0.0335125
0.0023268
-0.034554
0.00198028
-0.0354215
0.00159016
-0.0360916
0.00115745
-0.0365431
0.000686922
-0.0367564
0.000184059
-0.0367216
-0.000309714
-0.0364526
-0.000773591
-0.0359708
-0.00118926
-0.0353123
-0.00154402
-0.00178546
-0.0125456
0.0047824
-0.0137841
0.00484063
-0.0150506
0.00482017
-0.0163373
0.00477056
-0.0176381
0.00468856
-0.0189447
0.00456521
-0.0202455
0.00439229
-0.0215267
0.0041632
-0.022772
0.00387294
-0.0239632
0.00351796
-0.0250793
0.00309639
-0.0260978
0.00260866
-0.026998
0.00205764
-0.0277536
0.0014426
-0.0283412
0.000771678
-0.0287002
4.92646e-05
-0.0288503
-0.000623489
-0.0287798
-0.00125983
-0.0285187
-0.00180511
-0.00216707
-0.00360652
0.00532061
-0.00425814
0.00549225
-0.00497102
0.00553305
-0.0057326
0.00553214
-0.00654569
0.00550165
-0.00740922
0.00542874
-0.00831732
0.0053004
-0.00926233
0.00510821
-0.0102356
0.0048462
-0.0112269
0.00450925
-0.0122238
0.00409324
-0.0132109
0.00359581
-0.0141704
0.00301713
-0.0150883
0.00236048
-0.0159361
0.00161947
-0.0166981
0.000811296
-0.0172722
-4.93993e-05
-0.017678
-0.000854063
-0.0178952
-0.00158784
-0.00208549
0.00582826
0.00522929
0.00577518
0.00554533
0.00564311
0.00566511
0.0054555
0.00571976
0.00520173
0.00575542
0.00487534
0.00575512
0.00447833
0.00569741
0.00401446
0.00557207
0.00348666
0.005374
0.00289812
0.0050978
0.00225336
0.004738
0.00155846
0.00429071
0.000821102
0.00375449
5.0555e-05
0.00313102
-0.000757304
0.00242732
-0.00157701
0.001631
-0.00238728
0.000760871
-0.00309282
-0.00014852
-0.00368216
-0.0009985
-0.00168016
0.0157772
0.00468975
0.0161618
0.00516077
0.0164809
0.00534604
0.0167667
0.00543396
0.016999
0.00552314
0.0171647
0.00558939
0.0172643
0.00559781
0.0172987
0.00553764
0.0172659
0.00540679
0.0171636
0.00520009
0.0169907
0.00491093
0.016747
0.00453446
0.016432
0.00406941
0.0160457
0.00351737
0.0155869
0.00288613
0.015054
0.00216395
0.0144477
0.00136709
0.0137933
0.000505918
0.0131308
-0.000335974
-0.00112838
0.0273698
0.00406134
0.027891
0.00463956
0.0284041
0.00483302
0.0289353
0.00490268
0.0294494
0.00500906
0.0299337
0.00510516
0.0303897
0.00514177
0.0308141
0.00511328
0.0311987
0.00502214
0.0315366
0.00486216
0.0318222
0.00462539
0.0320507
0.0043059
0.0322165
0.00390367
0.0323145
0.00341937
0.0323352
0.00286544
0.0322754
0.00222373
0.0321178
0.0015247
0.0318633
0.000760378
0.0314988
2.848e-05
-0.000758513
0.0416476
0.00372758
0.0420192
0.00426801
0.0425005
0.00435173
0.0430496
0.00435352
0.0436217
0.00443702
0.0442225
0.00450429
0.0448545
0.00450985
0.0455054
0.00446231
0.0461618
0.00436581
0.0468136
0.00421035
0.0474512
0.00398777
0.0480665
0.00369063
0.0486482
0.00332189
0.0491885
0.00287909
0.0496716
0.00238238
0.0500971
0.0017982
0.0504338
0.00118801
0.0507066
0.000487597
0.0508066
-7.1574e-05
-0.000810431
0.0576798
0.00371413
0.0579768
0.00397095
0.0584983
0.00383023
0.0590717
0.00378012
0.0596872
0.00382154
0.0603699
0.00382158
0.0611104
0.00376942
0.061893
0.0036797
0.0627088
0.00354994
0.0635525
0.00336672
0.0644144
0.00312584
0.0652874
0.00281761
0.0661582
0.00245109
0.0670257
0.00201159
0.0678731
0.00153497
0.0686881
0.000983261
0.0694396
0.000436464
0.0701315
-0.000204321
0.0707034
-0.000643442
-0.00131701
0.0728352
0.0032514
0.0737313
0.00307485
0.07457
0.00299162
0.0753599
0.00299013
0.0761883
0.00299317
0.0770506
0.00295931
0.0779344
0.00288563
0.078844
0.00277003
0.0797838
0.00261017
0.0807565
0.00239406
0.0817577
0.00212461
0.082788
0.00178732
0.0838363
0.00140277
0.0849031
0.000944783
0.0859708
0.000467268
0.0870509
-9.68488e-05
0.0880869
-0.000599543
0.0891008
-0.0012182
0.0900613
-0.00160389
-0.00222259
0.099526
0.00406565
-0.10034
0.0986924
0.00390842
0.0979806
0.00370347
0.0974376
0.00353309
0.0970547
0.00337612
0.0968064
0.00320757
0.0966689
0.00302311
0.0966265
0.00281245
0.0966638
0.00257282
0.0967687
0.0022892
0.0969228
0.00197046
0.0971142
0.00159597
0.0973207
0.00119628
0.097534
0.000731429
0.0977245
0.000276789
0.0978894
-0.00026172
0.0980003
-0.000710437
0.0980565
-0.00127441
0.0980465
-0.00159387
-0.00212207
0.109577
0.00406379
-0.109575
0.109484
0.00400075
0.109334
0.00385394
0.109203
0.00366412
0.109115
0.00346431
0.109067
0.00325492
0.109057
0.00303329
0.109084
0.00278589
0.109142
0.00251471
0.109227
0.00220388
0.109329
0.00186914
0.10944
0.00148496
0.109545
0.001091
0.109637
0.000639381
0.109696
0.000217426
0.109724
-0.000289394
0.109701
-0.000687995
0.109627
-0.00120025
0.109503
-0.00146938
-0.00194843
0.116099
0.00407601
-0.116111
0.116208
0.00389181
0.116341
0.00372077
0.116484
0.00352135
0.116641
0.00330698
0.116814
0.00308288
0.116996
0.0028511
0.117185
0.00259692
0.117374
0.00232522
0.11756
0.00201786
0.117734
0.00169541
0.117891
0.0013282
0.118019
0.000962532
0.118116
0.000542511
0.118173
0.00016018
0.118181
-0.00029737
0.118138
-0.000644381
0.11804
-0.0011027
0.117901
-0.00133033
-0.00176657
0.120804
0.00395805
-0.120686
0.121013
0.00368277
0.121266
0.0034673
0.121533
0.00325457
0.121807
0.00303326
0.122088
0.00280174
0.122373
0.00256623
0.122656
0.00231327
0.122931
0.00205027
0.123192
0.00175707
0.123431
0.00145679
0.123642
0.00111713
0.123818
0.00078665
0.123954
0.000406005
0.124045
6.98142e-05
0.124082
-0.000335259
0.124071
-0.000632564
0.124006
-0.0010377
0.123905
-0.00122922
-0.00161945
0.12466
0.00370549
-0.124408
0.124937
0.00340586
0.125244
0.00316006
0.125566
0.00293311
0.125891
0.00270829
0.126217
0.00247571
0.126541
0.00224162
0.126861
0.00199399
0.127168
0.00174255
0.127459
0.00146656
0.127726
0.00119003
0.127963
0.00087964
0.128166
0.000583962
0.128328
0.000243872
0.128447
-4.87569e-05
0.128516
-0.000404768
0.128542
-0.000658492
0.128518
-0.0010135
0.128463
-0.00117423
-0.00151944
0.12835
0.0033979
-0.128043
0.128658
0.00309818
0.128982
0.00283664
0.129316
0.00259896
0.129651
0.00237262
0.129984
0.00214303
0.130311
0.00191435
0.13063
0.00167502
0.130936
0.00143632
0.131225
0.00117818
0.131491
0.000924383
0.131728
0.000642197
0.131934
0.000378378
0.132102
7.55909e-05
0.132232
-0.000179139
0.132319
-0.000491412
0.132369
-0.000708471
0.132374
-0.00101827
0.132353
-0.00115378
-0.00145726
0.132207
0.00307836
-0.131887
0.13252
0.00278426
0.132838
0.00251881
0.13316
0.00227724
0.133481
0.00205196
0.133796
0.00182769
0.134103
0.00160685
0.134401
0.00137781
0.134685
0.00115239
0.134951
0.000911829
0.135196
0.000679119
0.135416
0.000422881
0.135607
0.000186944
0.135764
-8.17621e-05
0.13589
-0.000305205
0.135978
-0.000579036
0.136035
-0.000765682
0.136053
-0.00103589
0.13605
-0.001151
-0.00141665
0.136303
0.00275837
-0.135983
0.13661
0.00247713
0.136911
0.00221789
0.137209
0.00197942
0.137502
0.00175852
0.137788
0.00154154
0.138065
0.00133026
0.13833
0.00111303
0.138581
0.000901396
0.138814
0.000678055
0.139029
0.0004648
0.139219
0.000232395
0.139385
2.12074e-05
0.139521
-0.00021793
0.13963
-0.000414318
0.139706
-0.000654857
0.139757
-0.00081625
0.139773
-0.00105207
0.139772
-0.00115052
-0.00138228
0.140582
0.00244665
-0.14027
0.140874
0.00218485
0.141153
0.00193863
0.141424
0.00170883
0.141687
0.00149582
0.14194
0.00128833
0.142182
0.00108824
0.142411
0.000884167
0.142625
0.000687012
0.142822
0.000480797
0.143001
0.000285935
0.143158
7.55936e-05
0.143293
-0.000113345
0.143401
-0.000326291
0.143486
-0.000499123
0.143541
-0.000710508
0.143576
-0.000850603
0.14358
-0.00105632
0.14357
-0.00114091
-0.00134237
0.144935
0.00215163
-0.14464
0.145208
0.00191152
0.145465
0.00168206
0.145708
0.00146513
0.145941
0.00126339
0.146161
0.00106776
0.146369
0.000880557
0.146562
0.000690986
0.14674
0.000509113
0.146901
0.00032027
0.147043
0.000143267
0.147165
-4.62925e-05
0.147267
-0.000214891
0.147344
-0.000403857
0.147401
-0.000555839
0.147432
-0.000741224
0.147444
-0.00086292
0.14743
-0.00104188
0.147404
-0.00111468
-0.00128885
0.149237
0.00187556
-0.148961
0.149491
0.00165765
0.149725
0.00144721
0.149944
0.0012464
0.150149
0.00105897
0.150339
0.000877626
0.150514
0.00070508
0.150674
0.000531332
0.150817
0.000365689
0.150943
0.000194732
0.151051
3.53628e-05
0.151138
-0.000134081
0.151207
-0.000283517
0.151253
-0.00045013
0.151281
-0.000583136
0.151284
-0.000744822
0.151271
-0.000850175
0.151235
-0.00100493
0.151187
-0.00106741
-0.0012168
0.153358
0.0016161
-0.153098
0.153594
0.00142138
0.153809
0.0012319
0.154006
0.00104984
0.154185
0.000879437
0.154348
0.000714701
0.154495
0.000558593
0.154624
0.000402103
0.154736
0.000253712
0.154829
0.00010134
0.154905
-4.0413e-05
0.154961
-0.000189782
0.154998
-0.000320775
0.155014
-0.000466121
0.155012
-0.000581381
0.154989
-0.000721024
0.15495
-0.000811455
0.154889
-0.000943965
0.154819
-0.000997162
-0.00112387
0.157173
0.00137073
-0.156928
0.157394
0.00120063
0.157592
0.0010339
0.157769
0.000872767
0.157927
0.00072169
0.158066
0.000575669
0.158187
0.000437737
0.158289
0.000299907
0.158373
0.00016982
0.158438
3.65315e-05
0.158484
-8.69193e-05
0.158511
-0.00021635
0.158519
-0.000329198
0.158507
-0.00045399
0.158478
-0.000552315
0.158428
-0.000671162
0.158364
-0.00074766
0.15828
-0.0008595
0.158187
-0.000904164
-0.00101004
0.160567
0.00113948
-0.160336
0.160773
0.000994983
0.160954
0.00085229
0.161113
0.00071371
0.161251
0.00058371
0.161369
0.000458054
0.161467
0.000339728
0.161545
0.000221684
0.161604
0.000110701
0.161644
-3.19159e-06
0.161665
-0.000107644
0.161666
-0.000217267
0.161649
-0.000312196
0.161612
-0.000417045
0.161559
-0.000499073
0.161486
-0.000598201
0.1614
-0.000661539
0.161294
-0.000754132
0.161181
-0.000790847
-0.000877672
0.163432
0.000924334
-0.163217
0.163621
0.000805424
0.163786
0.00068726
0.163928
0.000572094
0.164048
0.000464155
0.164146
0.000359817
0.164224
0.000261866
0.164281
0.000164141
0.164319
7.26244e-05
0.164338
-2.14852e-05
0.164337
-0.000107088
0.164317
-0.000197111
0.164279
-0.000274522
0.164222
-0.000360126
0.16415
-0.000426544
0.164059
-0.00050703
0.163955
-0.000557961
0.163834
-0.000632699
0.163705
-0.000662015
-0.000731552
0.165675
0.000725557
-0.165476
0.165849
0.000631402
0.165998
0.000537511
0.166125
0.000445882
0.166229
0.000360221
0.166311
0.000277435
0.166373
0.000199938
0.166415
0.000122541
0.166437
5.036e-05
0.166439
-2.40785e-05
0.166424
-9.13174e-05
0.166389
-0.00016223
0.166337
-0.000222755
0.166267
-0.000289937
0.166182
-0.000341562
0.166079
-0.000404494
0.165965
-0.000443834
0.165834
-0.000502041
0.165697
-0.00052453
-0.000578401
0.167258
0.000539014
-0.167071
0.16742
0.000468602
0.16756
0.000398416
0.167675
0.000330058
0.167769
0.000266447
0.167842
0.000204989
0.167894
0.000147634
0.167926
9.01961e-05
0.16794
3.68708e-05
0.167934
-1.82844e-05
0.16791
-6.78138e-05
0.167868
-0.000120253
0.16781
-0.000164653
0.167735
-0.000214226
0.167645
-0.000251925
0.167539
-0.000298273
0.167422
-0.000326844
0.167289
-0.000369616
0.167151
-0.000385857
-0.000425338
0.168243
0.000358703
-0.168062
0.1684
0.000311264
0.168534
0.000264276
0.168645
0.000218894
0.168735
0.000176945
0.168803
0.000136405
0.168852
9.86793e-05
0.168882
6.07795e-05
0.168893
2.56563e-05
0.168885
-1.06538e-05
0.168861
-4.31856e-05
0.168818
-7.77463e-05
0.16876
-0.00010676
0.168686
-0.000139412
0.168598
-0.00016397
0.168494
-0.000194479
0.16838
-0.000213012
0.168252
-0.00024113
0.168117
-0.000251617
-0.000277559
0.168776
0.000181086
-0.168598
0.168931
0.000155696
0.169064
0.000131717
0.169174
0.000109093
0.169262
8.84082e-05
0.16933
6.83556e-05
0.169379
4.97082e-05
0.169409
3.08385e-05
0.169421
1.35362e-05
0.169415
-4.60119e-06
0.169393
-2.06271e-05
0.169353
-3.78328e-05
0.169298
-5.2044e-05
0.169227
-6.83674e-05
0.169143
-8.03021e-05
0.169045
-9.56159e-05
0.168936
-0.000104495
0.168814
-0.00011869
0.168686
-0.000123529
-0.000136574
0.169002
-0.168821
0.169158
0.16929
0.169399
0.169487
0.169555
0.169605
0.169636
0.16965
0.169645
0.169624
0.169587
0.169534
0.169466
0.169386
0.16929
0.169186
0.169067
0.168943
0.0936259
0.0169238
-0.0922252
0.0951389
0.0268813
0.0967945
0.0367723
0.0985398
0.0465056
0.100438
0.0558003
0.102341
0.064725
0.104009
0.0729519
0.105578
0.0799151
0.103536
0.0873048
0.0861922
0.0957556
0.0156397
-0.0944716
0.0971953
0.0254416
0.0988409
0.0351267
0.100661
0.0446858
0.102603
0.0538585
0.10488
0.0624473
0.106772
0.0710598
0.109497
0.0771902
0.110657
0.0861455
0.0872737
0.0981542
0.0144752
-0.0969897
0.0995292
0.0240666
0.101108
0.0335484
0.102989
0.0428048
0.104922
0.0519247
0.1074
0.0599692
0.109638
0.0688224
0.112383
0.0744449
0.115202
0.0833262
0.0863646
0.100736
0.0134105
-0.0996715
0.102078
0.0227249
0.103611
0.0320158
0.105522
0.0408936
0.107516
0.0499308
0.109958
0.0575271
0.112526
0.0662541
0.115046
0.0719244
0.11839
0.0799828
0.0840688
0.103445
0.0124193
-0.102454
0.104766
0.0214045
0.106313
0.0304689
0.108223
0.0389827
0.110347
0.0478072
0.1127
0.0551739
0.115479
0.0634757
0.118039
0.0693637
0.121408
0.0766141
0.0810693
0.106234
0.0114753
-0.10529
0.107532
0.0201057
0.109136
0.0288653
0.111055
0.037064
0.113324
0.0455384
0.115711
0.0527864
0.118615
0.0605723
0.121416
0.0665626
0.124741
0.0732883
0.0777679
0.109044
0.0105603
-0.108129
0.11033
0.0188198
0.112003
0.0271924
0.113976
0.0350914
0.116377
0.0431367
0.118927
0.0502366
0.121938
0.0575613
0.125005
0.0634963
0.128399
0.0698939
0.0742798
0.111817
0.00966622
-0.110923
0.11311
0.0175268
0.11485
0.0254515
0.116926
0.0330161
0.119454
0.0406086
0.122217
0.0474737
0.125371
0.0544073
0.128689
0.0601778
0.132282
0.0663011
0.0705791
0.114492
0.00878935
-0.113615
0.115813
0.0162061
0.117622
0.0236423
0.119827
0.0308111
0.122492
0.0379437
0.125475
0.0444906
0.128831
0.0510516
0.132416
0.056593
0.136294
0.0624231
0.0666025
0.11702
0.00792554
-0.116157
0.118381
0.0148453
0.120264
0.0217598
0.122606
0.0284692
0.125427
0.0351228
0.128632
0.0412854
0.132237
0.0474458
0.136114
0.0527164
0.140325
0.0582121
0.0622877
0.119364
0.00707056
-0.118509
0.120768
0.0134413
0.122728
0.0197995
0.125204
0.0259932
0.128195
0.0321321
0.131624
0.0378566
0.135501
0.0435684
0.139688
0.0485298
0.144257
0.0536423
0.0575846
0.121499
0.00622296
-0.120652
0.122943
0.0119981
0.12498
0.0177624
0.127581
0.0233917
0.130742
0.0289716
0.134389
0.0342098
0.138536
0.0394207
0.143039
0.044027
0.147977
0.0487048
0.052463
0.123414
0.00538599
-0.122577
0.124887
0.0105248
0.126993
0.0156566
0.129706
0.0206785
0.133023
0.0256544
0.136873
0.0303598
0.141275
0.0350193
0.146086
0.0392157
0.151382
0.043409
0.0469169
0.125086
0.00456631
-0.124267
0.126579
0.00903258
0.12874
0.013495
0.131548
0.0178707
0.135001
0.0222014
0.139032
0.0263284
0.143661
0.0303911
0.148758
0.0341184
0.154384
0.0377829
0.0409651
0.126475
0.00376893
-0.125678
0.127977
0.00753068
0.130181
0.0112909
0.133066
0.014986
0.136631
0.0186367
0.140817
0.022142
0.145638
0.0255705
0.150986
0.0287702
0.1569
0.031869
0.0346482
0.127532
0.00298872
-0.126751
0.129039
0.00602361
0.131274
0.00905511
0.134219
0.0120413
0.137871
0.014985
0.142182
0.0178311
0.147155
0.0205976
0.152708
0.0232172
0.158855
0.0257219
0.0280271
0.128249
0.00222197
-0.127482
0.129761
0.00451214
0.132018
0.00679733
0.135006
0.00905351
0.138719
0.0112723
0.14312
0.0134301
0.148201
0.015516
0.153905
0.0175135
0.160222
0.0194049
0.0211781
0.128698
0.00146646
-0.127942
0.13021
0.00299983
0.132479
0.00452846
0.135492
0.00604066
0.13924
0.0075245
0.143696
0.00897355
0.148844
0.0103686
0.154643
0.0117145
0.161067
0.0129811
0.0141823
0.128978
0.000728026
-0.128239
0.130483
0.00149441
0.132751
0.00226073
0.135772
0.00301965
0.139533
0.00376302
0.144016
0.00449072
0.149195
0.00518951
0.155043
0.00586634
0.161523
0.00650132
0.00710711
0.129128
-0.1284
0.130623
0.132883
0.135903
0.139666
0.144157
0.149346
0.155213
0.161714
0.044312
0.0559741
-0.0500259
-0.0502602
0.0382699
0.0550979
-0.0490558
0.0325341
0.054651
-0.0489152
0.0270325
0.0547359
-0.0492343
0.0216712
0.0552711
-0.0499097
0.0163988
0.0562655
-0.0509931
0.0112085
0.0576495
-0.0524591
0.00624457
0.0583003
-0.0533364
0.00207004
0.0535223
-0.0493478
0.031254
-0.029184
0.0417854
0.0618893
-0.0477006
0.0359653
0.0609181
0.0303632
0.0602531
0.0250125
0.0600866
0.0198472
0.0604364
0.014802
0.0613107
0.00987984
0.0625717
0.00527364
0.0629065
0.00158995
0.057206
0.032844
0.0384593
0.0674455
-0.0440155
0.0329462
0.0664311
0.0275897
0.0656096
0.0224621
0.0652142
0.0175437
0.0653548
0.0127849
0.0660695
0.00821002
0.0671466
0.0040679
0.0670486
0.00099829
0.0602756
0.0338423
0.0341116
0.0725981
-0.0392642
0.0290345
0.0715082
0.0240712
0.070573
0.0192967
0.0699886
0.014725
0.0699265
0.0103356
0.0704589
0.00619079
0.0712913
0.00262367
0.0706158
0.000282473
0.0626168
0.0341247
0.0288252
0.0772883
-0.0335154
0.0242447
0.0760886
0.0197799
0.0750379
0.015479
0.0742894
0.0113639
0.0740417
0.00744363
0.0743792
0.00382426
0.0749107
0.000909923
0.0735301
-0.000459955
0.0639867
0.0336648
0.0226159
0.0814091
-0.0267367
0.0186253
0.0800792
0.0147544
0.0789088
0.0110284
0.0780153
0.00747146
0.0775987
0.00412571
0.077725
0.0011715
0.0778649
-0.000908089
0.0756097
-0.00123533
0.0643139
0.0324294
0.0155913
0.0848462
-0.0190284
0.0122746
0.0833959
0.00907442
0.082109
0.00600322
0.0810865
0.00309309
0.0805088
0.000413426
0.0804046
-0.00175512
0.0800334
-0.00279516
0.0766497
-0.00202908
0.0635478
0.0304004
0.00784491
0.0875064
-0.0105051
0.0052714
0.0859694
0.00282324
0.0845572
0.000489495
0.0834203
-0.00172076
0.082719
-0.00364413
0.082328
-0.00490536
0.0812947
-0.00481764
0.076562
-0.00279383
0.061524
0.0276065
-0.000529948
0.0894245
-0.00138813
-0.00226821
0.0877076
-0.00392393
0.0862129
-0.00549907
0.0849954
-0.00691798
0.084138
-0.00798288
0.0833929
-0.00820584
0.0815176
-0.00682654
0.0751827
-0.00346088
0.0581584
0.0241457
-0.00930094
0.00840237
-0.0101977
-0.0110366
-0.0117969
-0.0123798
-0.012486
-0.0115124
-0.00868622
-0.00394937
0.0390584
0.00369291
-0.0427513
0.0352251
0.00383336
0.0312287
0.00399637
0.027047
0.00418164
0.02265
0.00439706
0.0179984
0.0046516
0.0130571
0.00494128
0.00788608
0.00517102
0.00297453
0.00491155
0.00297453
0.0395502
0.00750611
-0.0433634
0.0356113
0.00777232
0.0315239
0.00808369
0.0272659
0.00843969
0.0228065
0.0088565
0.0181055
0.00935251
0.0131251
0.00992172
0.00792198
0.0103741
0.00299391
0.00983962
0.00596843
0.0404725
0.0115474
-0.0445137
0.0363332
0.0119116
0.0320732
0.0123437
0.0276695
0.0128433
0.0230907
0.0134353
0.0182952
0.014148
0.0132433
0.0149736
0.00798825
0.0156292
0.00301809
0.0148098
0.00898652
0.0417069
0.0158971
-0.0460567
0.0372956
0.0163229
0.0328003
0.016839
0.0281982
0.0174455
0.0234568
0.0181767
0.0185335
0.0190713
0.0133859
0.0201212
0.00806273
0.0209524
0.00304463
0.0198279
0.0120312
0.0430928
0.0206024
-0.0477981
0.0383658
0.0210499
0.033597
0.0216078
0.028765
0.0222775
0.0238371
0.0231045
0.0187687
0.0241398
0.0135147
0.0253752
0.00812049
0.0263466
0.00306056
0.0248878
0.0150917
0.0444515
0.0256665
-0.0495156
0.0393998
0.0261015
0.0343452
0.0266625
0.0292731
0.0273496
0.0241527
0.0282249
0.0189379
0.0293545
0.0135823
0.0307308
0.00812966
0.0317992
0.00305058
0.0299669
0.0181423
0.0455631
0.0310746
-0.0509711
0.0401965
0.0314681
0.0348771
0.0319819
0.0295937
0.032633
0.0243073
0.0335113
0.018969
0.0346929
0.0135353
0.0361645
0.00805475
0.0372798
0.00299811
0.0350235
0.0211404
0.0463573
0.0367708
-0.0520535
0.0406852
0.0371402
0.0351234
0.0375436
0.0296576
0.0380988
0.0242345
0.0389344
0.0188041
0.0401232
0.0133279
0.0416407
0.00786408
0.0427436
0.00288917
0.0399984
0.0240296
0.04635
0.0428936
-0.0524729
0.04045
0.0430403
0.0348027
0.0431909
0.0292705
0.0436311
0.0237942
0.0444106
0.0183445
0.045573
0.0128936
0.0470916
0.00751732
0.0481198
0.00271203
0.0448037
0.0267416
0.0458328
-0.0529651
0.0398173
0.034093
0.0284898
0.0229907
0.0175705
0.012203
0.00698642
0.00244237
0.046723
-0.000147344
0.0468689
-0.000145883
0.0470123
-0.000143367
0.0471477
-0.000135416
0.0472702
-0.000122536
0.0473753
-0.000105045
0.0474578
-8.25484e-05
0.047512
-5.4201e-05
0.0475302
-1.81747e-05
0.047509
2.12114e-05
0.0474439
6.5071e-05
0.0473253
0.000118653
0.0471426
0.000182661
0.0468841
0.000258508
0.0465359
0.000348144
0.0460819
0.00045401
0.0455028
0.000579089
0.0447754
0.000727437
0.043874
0.000901423
0.00112267
0.0475328
-0.000294933
0.0476771
-0.000290164
0.0478165
-0.000282774
0.0479469
-0.000265787
0.048064
-0.000239623
0.0481632
-0.000204278
0.0482394
-0.000158783
0.0482866
-0.000101392
0.0482967
-2.82944e-05
0.0482684
4.94974e-05
0.048195
0.000138522
0.0480668
0.000246844
0.0478734
0.000376055
0.0476029
0.00052904
0.0472413
0.000709712
0.0467724
0.00092296
0.0461767
0.00117472
0.0454309
0.00147327
0.0445098
0.00182252
0.00226905
0.0491247
-0.000429771
0.0492565
-0.000421974
0.0493838
-0.000410025
0.0495017
-0.000383652
0.0496055
-0.000343452
0.0496905
-0.000289333
0.0497516
-0.000219879
0.0497825
-0.000132255
0.0497737
-1.94815e-05
0.0497294
9.38217e-05
0.0496371
0.000230832
0.0494876
0.000396284
0.0492707
0.000593017
0.0489741
0.000825597
0.0485839
0.00109993
0.0480834
0.00142341
0.0474534
0.00180478
0.0466695
0.00225709
0.0457086
0.00278345
0.00346394
0.0514371
-0.000538957
0.0515433
-0.000528147
0.0516449
-0.000511661
0.0517369
-0.000475638
0.051814
-0.000420567
0.0518711
-0.000346416
0.0519026
-0.000251362
0.0519015
-0.000131193
0.0518621
1.99134e-05
0.0517862
0.000169758
0.051659
0.000358064
0.0514715
0.0005837
0.0512136
0.000850935
0.0508729
0.00116632
0.0504351
0.00153772
0.0498831
0.00197538
0.0491977
0.00249019
0.048353
0.00310179
0.0473295
0.00380695
0.0047368
0.0543863
-0.000604149
0.0544481
-0.000590043
0.0545046
-0.000568156
0.0545504
-0.000521428
0.0545799
-0.000450002
0.0545873
-0.000353838
0.0545666
-0.000230652
0.054509
-7.36348e-05
0.0544273
0.000101617
0.0542961
0.000300933
0.054111
0.000543239
0.0538626
0.000832044
0.0535405
0.00117307
0.0531318
0.001575
0.0526224
0.00204715
0.0519941
0.00260372
0.0512284
0.00325584
0.0502957
0.00403447
0.0491838
0.00491886
0.00612255
0.0578759
-0.000600776
0.0578682
-0.000582323
0.0578525
-0.000552488
0.0578239
-0.000492747
0.0577767
-0.000402844
0.0577057
-0.000282863
0.0576031
-0.000127995
0.0574687
6.06925e-05
0.0573053
0.000265066
0.0570897
0.000516515
0.0568169
0.000816039
0.0564779
0.00117107
0.0560623
0.00158869
0.0555562
0.00208105
0.0549462
0.0026572
0.0542114
0.00333849
0.0533362
0.00413106
0.0522832
0.00508744
0.0510532
0.00614885
0.00766017
0.0618085
-0.000496469
0.0616972
-0.000471068
0.0615726
-0.000427827
0.0614317
-0.000351842
0.0612704
-0.000241615
0.0610779
-9.02824e-05
0.0608595
9.03909e-05
0.0606218
0.000298326
0.0603349
0.000552064
0.0599961
0.000855265
0.0595988
0.0012133
0.0591326
0.00163736
0.0585879
0.00213339
0.0579488
0.00272011
0.0572046
0.00340139
0.0563292
0.0042139
0.0553141
0.00514611
0.054106
0.00629556
0.052724
0.00753089
0.00941301
0.0660915
-0.000244596
0.0658325
-0.000212151
0.0655544
-0.000149656
0.0652486
-4.60439e-05
0.064922
8.49356e-05
0.0645819
0.00024987
0.0642158
0.000456414
0.0638074
0.000706745
0.0633549
0.00100462
0.0628503
0.00135984
0.0622871
0.00177647
0.0616529
0.00227161
0.0609406
0.00284569
0.0601291
0.00353159
0.0592137
0.00431674
0.0581546
0.00527309
0.0569625
0.00633814
0.0555602
0.0076979
0.0540066
0.00908451
0.0113661
0.0706421
0.000213693
0.0701721
0.000257907
0.069684
0.000338439
0.0691825
0.000455482
0.068659
0.000608379
0.0681067
0.000802165
0.0675235
0.00103965
0.0669029
0.00132733
0.0662402
0.00166737
0.0655256
0.00207438
0.0647541
0.00254796
0.0639099
0.00311579
0.0629915
0.00376417
0.0619705
0.00455257
0.0608579
0.00542931
0.0595851
0.00654587
0.0581888
0.00773448
0.0565061
0.00938061
0.0547306
0.01086
0.0136238
0.0754427
0.000993372
0.0746961
0.00100454
0.0739481
0.00108645
0.0731814
0.00122217
0.0723907
0.00139902
0.0715745
0.00161839
0.0707313
0.00188283
0.0698545
0.00220415
0.0689393
0.00258256
0.0679747
0.00303903
0.066958
0.0035646
0.0658698
0.00420398
0.0647153
0.00491875
0.0634559
0.0058119
0.0621285
0.00675671
0.0606397
0.00803472
0.0591487
0.00922543
0.0573315
0.0111978
0.0556721
0.0125193
0.0163309
0.0743403
0.000920256
0.0743558
0.00098912
0.0743413
0.00110093
0.0743133
0.00125016
0.0742811
0.00143122
0.0742486
0.00165087
0.0742204
0.00191107
0.0741975
0.00222705
0.0741854
0.00259462
0.0741836
0.00304088
0.0742044
0.00354373
0.0742442
0.00416424
0.0743329
0.00483
0.0744515
0.00569338
0.0746739
0.00653431
0.0749394
0.00776922
0.0754395
0.00872531
0.0760477
0.0105896
0.0773338
0.0112332
0.014104
0.0795607
0.0793099
0.000903304
0.0793037
0.000995252
0.0792806
0.00112405