/*--------------------------------*- C++ -*----------------------------------*\
| =========                 |                                                 |
| \\      /  F ield         | OpenFOAM: The Open Source CFD Toolbox           |
|  \\    /   O peration     | Version:  4.1                                   |
|   \\  /    A nd           | Web:      www.OpenFOAM.org                      |
|    \\/     M anipulation  |                                                 |
\*---------------------------------------------------------------------------*/
FoamFile
{
    version     2.0;
    format      ascii;
    class       volScalarField;
    location    "5.9";
    object      p;
}
// * * * * * * * * * * * * * * * * * * * * * * * * * * * * * * * * * * * * * //

dimensions      [0 2 -2 0 0 0 0];

internalField   nonuniform List<scalar> 
2000
(
-0.399688
-0.387652
-0.377245
-0.367499
-0.357653
-0.346399
-0.332479
-0.315929
-0.294992
-0.274519
-0.42192
-0.406496
-0.393654
-0.38089
-0.366598
-0.349638
-0.329669
-0.307208
-0.282451
-0.258724
-0.448203
-0.428818
-0.412916
-0.395812
-0.375259
-0.351142
-0.324416
-0.296456
-0.268022
-0.240981
-0.478244
-0.454283
-0.434352
-0.41097
-0.382187
-0.34981
-0.316221
-0.283209
-0.251596
-0.223099
-0.510979
-0.481925
-0.456472
-0.424417
-0.385681
-0.344541
-0.304352
-0.266784
-0.232486
-0.201981
-0.54449
-0.510032
-0.476812
-0.433689
-0.383976
-0.334215
-0.287997
-0.246474
-0.209719
-0.177421
-0.575804
-0.535981
-0.492231
-0.436201
-0.375419
-0.317751
-0.266284
-0.22136
-0.182411
-0.148277
-0.601185
-0.556158
-0.49949
-0.429696
-0.358591
-0.294133
-0.238336
-0.190632
-0.149753
-0.114004
-0.616737
-0.566452
-0.495573
-0.412378
-0.332322
-0.262422
-0.203318
-0.153546
-0.111189
-0.0742729
-0.618946
-0.563092
-0.477857
-0.382867
-0.295704
-0.22182
-0.160478
-0.109441
-0.0662838
-0.0289935
-0.29198
-0.297928
-0.300189
-0.301475
-0.301988
-0.301259
-0.298909
-0.294698
-0.288609
-0.28099
-0.295858
-0.301247
-0.30336
-0.304711
-0.305399
-0.304913
-0.302837
-0.298839
-0.292759
-0.285201
-0.302967
-0.307234
-0.309035
-0.310393
-0.311278
-0.311126
-0.309447
-0.305793
-0.299734
-0.291898
-0.31215
-0.314895
-0.316098
-0.317216
-0.318116
-0.318177
-0.316818
-0.313536
-0.307674
-0.298581
-0.322273
-0.323263
-0.323495
-0.323953
-0.324512
-0.324488
-0.323238
-0.320142
-0.314283
-0.303824
-0.332598
-0.331729
-0.330624
-0.329973
-0.329686
-0.329189
-0.327693
-0.324394
-0.318974
-0.306229
-0.342997
-0.340238
-0.337501
-0.335343
-0.333838
-0.332482
-0.330389
-0.326368
-0.321367
-0.306421
-0.353961
-0.349265
-0.344719
-0.340853
-0.337896
-0.335336
-0.332144
-0.326831
-0.321249
-0.305146
-0.366405
-0.359616
-0.353202
-0.347568
-0.342931
-0.338589
-0.333301
-0.325913
-0.317719
-0.301628
-0.38136
-0.372173
-0.363838
-0.356333
-0.349537
-0.342423
-0.333499
-0.322357
-0.308662
-0.292731
-0.272215
-0.26125
-0.248406
-0.233797
-0.217541
-0.199839
-0.18096
-0.161227
-0.140994
-0.120613
-0.100482
-0.081026
-0.0626412
-0.0457004
-0.0305587
-0.0175438
-0.00696723
0.000841377
0.00536536
0.00854608
-0.277749
-0.266973
-0.254218
-0.23973
-0.223504
-0.205761
-0.186791
-0.166926
-0.14645
-0.125818
-0.105446
-0.085722
-0.0670603
-0.049843
-0.034422
-0.0211164
-0.0102254
-0.00197236
0.0029559
0.00696005
-0.28738
-0.276529
-0.263965
-0.249621
-0.233388
-0.215663
-0.196604
-0.176536
-0.155822
-0.134852
-0.114061
-0.0938871
-0.0747522
-0.0570459
-0.0411185
-0.0272686
-0.015782
-0.00670982
-0.000889362
0.0043552
-0.297139
-0.28732
-0.274652
-0.260578
-0.244742
-0.227149
-0.208058
-0.187819
-0.166817
-0.145479
-0.124252
-0.103586
-0.083912
-0.0656284
-0.049079
-0.0345313
-0.0222546
-0.0121418
-0.00503918
0.00165664
-0.304849
-0.296909
-0.28431
-0.270296
-0.254812
-0.237525
-0.218563
-0.198299
-0.177158
-0.155582
-0.134029
-0.112964
-0.0928263
-0.0740159
-0.0568613
-0.0416051
-0.0284722
-0.0173012
-0.00873341
-0.000694509
-0.309258
-0.303149
-0.290894
-0.276981
-0.261871
-0.244999
-0.226318
-0.206202
-0.185111
-0.163503
-0.141841
-0.120593
-0.100191
-0.0810346
-0.0634205
-0.0475919
-0.0336847
-0.0216215
-0.0116686
-0.00259252
-0.310072
-0.304795
-0.292877
-0.279272
-0.264624
-0.248222
-0.229967
-0.210222
-0.189443
-0.168095
-0.146636
-0.12553
-0.105176
-0.0859705
-0.0681576
-0.0520097
-0.0375399
-0.0248554
-0.0137906
-0.00403487
-0.307384
-0.301413
-0.289635
-0.276503
-0.262315
-0.246458
-0.228865
-0.209814
-0.189701
-0.16899
-0.14813
-0.127565
-0.107647
-0.0887567
-0.0710721
-0.0549076
-0.040149
-0.0271147
-0.0152477
-0.00506264
-0.301396
-0.294016
-0.282444
-0.269562
-0.255659
-0.240503
-0.223909
-0.205926
-0.186862
-0.167176
-0.147283
-0.1276
-0.10842
-0.0901144
-0.0728015
-0.0568431
-0.0420203
-0.0288325
-0.016416
-0.00586037
-0.290894
-0.283514
-0.272113
-0.258574
-0.244493
-0.229996
-0.21451
-0.197789
-0.180038
-0.161671
-0.143052
-0.124559
-0.106429
-0.0890276
-0.0724208
-0.0570156
-0.0425124
-0.029543
-0.0170412
-0.00640763
-0.2629
-0.265039
-0.254875
-0.240501
-0.226279
-0.212493
-0.198151
-0.182742
-0.166393
-0.149524
-0.13248
-0.115594
-0.0990351
-0.0831224
-0.0678648
-0.0536642
-0.0401659
-0.0280619
-0.0161997
-0.00620234
-0.233341
-0.240456
-0.231608
-0.216894
-0.202862
-0.190217
-0.177562
-0.164006
-0.149544
-0.134593
-0.119494
-0.104539
-0.0898373
-0.0756597
-0.0619786
-0.0491828
-0.0369014
-0.0258565
-0.0148914
-0.00576214
-0.204127
-0.213495
-0.206552
-0.193152
-0.18036
-0.169235
-0.15835
-0.14665
-0.134038
-0.12091
-0.107607
-0.0943972
-0.0813586
-0.0687314
-0.0564667
-0.0449479
-0.0338014
-0.0237699
-0.013712
-0.00541952
-0.175838
-0.186299
-0.181585
-0.170327
-0.159237
-0.149636
-0.140325
-0.130282
-0.119354
-0.107895
-0.0962242
-0.0846001
-0.0730797
-0.061884
-0.0509476
-0.0406472
-0.0306092
-0.021584
-0.0124464
-0.00499582
-0.148939
-0.160051
-0.157527
-0.148608
-0.139364
-0.131261
-0.123399
-0.114875
-0.105512
-0.0956081
-0.085452
-0.0752896
-0.065169
-0.0552989
-0.0456031
-0.0364518
-0.0274743
-0.0194218
-0.011192
-0.00457642
-0.124017
-0.135439
-0.134825
-0.128148
-0.12075
-0.114121
-0.107622
-0.100501
-0.0925795
-0.0841077
-0.0753418
-0.0665166
-0.0576766
-0.0490244
-0.0404777
-0.0324008
-0.0244273
-0.0173059
-0.00995775
-0.00415674
-0.101314
-0.112724
-0.113685
-0.109051
-0.103418
-0.0982081
-0.0929872
-0.0871513
-0.0805446
-0.0733806
-0.0658852
-0.0582822
-0.0506146
-0.0430819
-0.035599
-0.0285248
-0.0214977
-0.0152617
-0.00876058
-0.00374771
-0.0807458
-0.0919464
-0.0941916
-0.0913742
-0.0873741
-0.0834968
-0.0794614
-0.0747991
-0.069387
-0.0634139
-0.0570782
-0.0505926
-0.0439986
-0.0374945
-0.0309941
-0.0248521
-0.0187114
-0.0133109
-0.00761491
-0.00335586
-0.0621813
-0.0730845
-0.0763754
-0.075144
-0.0726201
-0.0699674
-0.0670195
-0.0634251
-0.0590959
-0.0542036
-0.0489232
-0.0434562
-0.0378427
-0.0322808
-0.0266841
-0.0214041
-0.016088
-0.0114695
-0.00653105
-0.00298515
-0.045533
-0.0560924
-0.0602293
-0.0603658
-0.0591537
-0.0576077
-0.0556469
-0.0530181
-0.0496661
-0.0457498
-0.0414245
-0.0368814
-0.0321593
-0.0274561
-0.0226861
-0.0181981
-0.0136433
-0.00975024
-0.00551738
-0.00263866
-0.0307142
-0.0409034
-0.0457208
-0.047029
-0.0469688
-0.0464099
-0.0453345
-0.0435717
-0.0410952
-0.0380543
-0.0345874
-0.0308768
-0.0269597
-0.0230339
-0.0190147
-0.0152485
-0.0113902
-0.0081634
-0.0045806
-0.00231866
-0.0176309
-0.027445
-0.0328089
-0.0351151
-0.0360567
-0.036367
-0.036076
-0.0350817
-0.0333826
-0.03112
-0.0284179
-0.0254507
-0.0222543
-0.019026
-0.0156821
-0.0125672
-0.00933917
-0.00671726
-0.00372606
-0.0020269
-0.00619838
-0.0156512
-0.0214525
-0.0246024
-0.0264057
-0.0274714
-0.0278662
-0.0275453
-0.0265285
-0.02495
-0.0229218
-0.020611
-0.0180521
-0.0154422
-0.0126986
-0.0101638
-0.00749883
-0.00541849
-0.002958
-0.00176477
0.00365542
-0.00546211
-0.0116111
-0.015467
-0.0180021
-0.0197145
-0.0206995
-0.0209598
-0.0205329
-0.0195472
-0.0181039
-0.016364
-0.0143608
-0.012291
-0.0100725
-0.00804638
-0.00587602
-0.00427242
-0.00227983
-0.00153338
0.0119936
0.00317648
-0.0032462
-0.00768465
-0.010831
-0.0130871
-0.0145702
-0.0153223
-0.0153958
-0.0149137
-0.0139683
-0.0127153
-0.0111867
-0.00957905
-0.00781071
-0.00622123
-0.00447627
-0.0032833
-0.00169428
-0.00133363
0.0188712
0.0103122
0.00367682
-0.00123257
-0.00487778
-0.00757964
-0.00947226
-0.0106298
-0.0111165
-0.011051
-0.0105181
-0.00966899
-0.00853491
-0.00731174
-0.00591854
-0.00469343
-0.00330397
-0.0024545
-0.00120349
-0.00116623
0.0243323
0.0159829
0.00918538
0.00390758
-0.000130131
-0.00318375
-0.00540036
-0.00687931
-0.00769412
-0.00795996
-0.00775556
-0.00722847
-0.00640927
-0.00549331
-0.00440029
-0.0034669
-0.00236257
-0.00178861
-0.000809136
-0.00103175
0.0284115
0.0202165
0.0132983
0.00774758
0.00341938
0.000105489
-0.00235127
-0.00406913
-0.00512847
-0.00564158
-0.00568261
-0.00539628
-0.00481277
-0.00412694
-0.00325911
-0.00254462
-0.00165465
-0.00128764
-0.000512576
-0.000930305
0.0311561
0.0230501
0.0160417
0.0103042
0.00578135
0.00229481
-0.00032073
-0.00219676
-0.00341846
-0.00409589
-0.00430017
-0.00417393
-0.00374742
-0.00321466
-0.0024973
-0.00192825
-0.0011824
-0.000951947
-0.000316636
-0.000858733
0.0325931
0.0245127
0.0174411
0.0115979
0.00697029
0.00339386
0.000697262
-0.00125859
-0.0025623
-0.00332211
-0.00360882
-0.003562
-0.00321524
-0.00275711
-0.00211806
-0.00161689
-0.000950911
-0.000776291
-0.000230293
-0.000803408
0.00179964
-0.0426872
-0.0822579
-0.116861
-0.146701
-0.172077
-0.193798
-0.212438
-0.228375
-0.249191
0.0279486
-0.0146411
-0.0525295
-0.0859607
-0.114925
-0.140121
-0.161087
-0.180539
-0.195281
-0.216362
0.051266
0.0109237
-0.0249289
-0.056897
-0.0845778
-0.109389
-0.129692
-0.149693
-0.164573
-0.184633
0.071984
0.0336653
-0.000467371
-0.0312542
-0.0579292
-0.0823939
-0.102443
-0.122387
-0.137707
-0.156326
0.0903496
0.0537404
0.0210051
-0.00878944
-0.0346919
-0.0586694
-0.0785022
-0.0978035
-0.113151
-0.130285
0.106631
0.0715225
0.0400039
0.0111762
-0.0139943
-0.0372512
-0.0567034
-0.0751403
-0.0902711
-0.106342
0.121098
0.0873457
0.0569309
0.0290697
0.0046298
-0.0178164
-0.0368316
-0.05453
-0.0694232
-0.0847325
0.133971
0.101449
0.0720374
0.0450979
0.0213431
-0.000354797
-0.0189657
-0.0360879
-0.0506833
-0.0652882
0.145417
0.114005
0.0854981
0.059401
0.0362674
0.0152235
-0.00299243
-0.0196015
-0.0338245
-0.047759
0.15557
0.125151
0.0974574
0.0721177
0.0495535
0.0290951
0.0112836
-0.00484465
-0.018694
-0.0320342
0.164539
0.135003
0.108041
0.0833793
0.0613421
0.0414131
0.0239927
0.00829398
-0.00522619
-0.0180465
0.172412
0.143659
0.117352
0.0932954
0.0717404
0.0522822
0.0352162
0.0198903
0.00665527
-0.00570734
0.179264
0.151201
0.125476
0.101953
0.0808307
0.0617849
0.0450307
0.0300278
0.0170398
0.00507204
0.18516
0.1577
0.132482
0.109425
0.0886839
0.0699952
0.0535112
0.0387842
0.0260036
0.0143641
0.19013
0.163203
0.138424
0.115769
0.0953597
0.076976
0.0607205
0.0462216
0.033607
0.0222296
0.19421
0.16773
0.143339
0.121034
0.100907
0.0827778
0.0667091
0.0523907
0.0399009
0.0287222
0.197416
0.171322
0.147267
0.125256
0.105364
0.0874401
0.0715169
0.0573325
0.044927
0.0338857
0.199791
0.174018
0.150243
0.128473
0.108768
0.0910004
0.0751814
0.0610845
0.048722
0.0377562
0.201347
0.175836
0.15229
0.130715
0.111157
0.0935042
0.0777526
0.0637013
0.0513424
0.0403892
0.202024
0.176708
0.153327
0.131896
0.112446
0.094875
0.0791666
0.0651402
0.0527704
0.0417983
0.647092
0.647408
0.638408
0.621203
0.596676
0.563639
0.51818
0.454548
0.37185
0.314881
0.583303
0.576738
0.557384
0.531577
0.499571
0.458162
0.402418
0.326522
0.22993
0.16305
0.516355
0.501854
0.474284
0.441324
0.4021
0.352257
0.286541
0.199344
0.090022
0.0156092
0.441386
0.421193
0.388688
0.350605
0.305149
0.247565
0.172832
0.0760818
-0.0444441
-0.122741
0.363862
0.339122
0.303031
0.260872
0.210122
0.145844
0.0632502
-0.0409363
-0.169356
-0.247604
0.287943
0.259055
0.219933
0.174291
0.11906
0.0492643
-0.0398359
-0.150952
-0.277854
-0.356751
0.215235
0.182688
0.141164
0.0927757
0.0340151
-0.0399254
-0.133494
-0.247473
-0.370834
-0.44822
0.146684
0.111128
0.0679687
0.0177723
-0.0433603
-0.119892
-0.215284
-0.329059
-0.446995
-0.520401
0.0828508
0.045161
0.00151737
-0.0497709
-0.112253
-0.189505
-0.284369
-0.394965
-0.504623
-0.572529
0.0227584
-0.0143149
-0.0577561
-0.109307
-0.171812
-0.248164
-0.340294
-0.444585
-0.5431
-0.604931
1.07433
1.09076
1.11001
1.13215
1.15712
1.18464
1.21384
1.24232
1.26707
1.29522
1.0677
1.08298
1.10136
1.12258
1.14642
1.17251
1.19997
1.22632
1.24849
1.27465
1.05426
1.0673
1.08397
1.1034
1.12497
1.14826
1.17226
1.19433
1.21156
1.23357
1.03373
1.04354
1.05774
1.07453
1.0928
1.11197
1.13089
1.14669
1.15668
1.17258
1.00576
1.0115
1.02258
1.03599
1.04999
1.06384
1.0762
1.08387
1.08448
1.09259
0.97003
0.970937
0.978337
0.987728
0.996648
1.00415
1.00866
1.0066
0.995895
0.994823
0.926418
0.921991
0.925382
0.930245
0.933328
0.933542
0.929082
0.915941
0.892258
0.880982
0.873627
0.863658
0.863387
0.863725
0.860565
0.852855
0.838615
0.813379
0.775445
0.753211
0.812439
0.797286
0.793909
0.789258
0.779189
0.763065
0.738579
0.700702
0.647867
0.614
0.736601
0.723129
0.718802
0.708663
0.69109
0.666192
0.631098
0.580246
0.512301
0.46661
0.999282
0.997832
0.99689
0.996366
0.996032
0.995866
0.995955
0.996391
0.997246
0.998596
1.00054
1.00312
1.00646
1.01063
1.01578
1.022
1.02945
1.03824
1.04855
1.06047
0.999221
0.997707
0.996671
0.99601
0.995532
0.995225
0.995172
0.99546
0.996155
0.997328
0.999057
1.00142
1.0045
1.00839
1.0132
1.01904
1.02603
1.03428
1.04395
1.05507
0.999145
0.997458
0.996185
0.995254
0.994503
0.99392
0.99358
0.993565
0.993938
0.994752
0.996069
0.997973
1.00054
1.00385
1.00798
1.01304
1.01911
1.02627
1.03463
1.04408
0.999016
0.997048
0.99541
0.994081
0.992926
0.991929
0.991153
0.990669
0.990537
0.990808
0.991519
0.992738
0.994524
0.996935
1.00004
1.00388
1.00853
1.01399
1.02032
1.02718
0.998829
0.996466
0.99434
0.99248
0.990786
0.989234
0.987869
0.986744
0.985908
0.985409
0.985311
0.985624
0.986366
0.987561
0.989244
0.991418
0.9941
0.997192
1.0007
1.00393
0.998576
0.995696
0.992958
0.990435
0.988063
0.985813
0.983708
0.981783
0.98004
0.978589
0.977419
0.976533
0.975931
0.975582
0.97546
0.975489
0.975638
0.975642
0.975493
0.973959
0.998251
0.994719
0.991245
0.987932
0.984747
0.981654
0.978649
0.975693
0.97297
0.970399
0.967936
0.965561
0.963252
0.960938
0.958552
0.955891
0.952874
0.948993
0.944371
0.936996
0.997848
0.993528
0.989186
0.984952
0.980823
0.976709
0.972589
0.968651
0.964766
0.960847
0.956866
0.95277
0.948499
0.943894
0.938845
0.932979
0.926209
0.917549
0.907383
0.892254
0.997394
0.99218
0.986879
0.981527
0.976241
0.971058
0.965954
0.960774
0.955466
0.949981
0.944267
0.938205
0.931687
0.924449
0.916354
0.90679
0.895786
0.881631
0.865391
0.840887
0.996789
0.990352
0.983904
0.977553
0.971201
0.964796
0.958291
0.951616
0.944703
0.937453
0.929762
0.921433
0.912305
0.901941
0.890164
0.875885
0.8593
0.837224
0.812436
0.774226
0.996344
0.989041
0.981714
0.974314
0.966789
0.9591
0.951202
0.943012
0.93443
0.925314
0.915516
0.90478
0.892885
0.879305
0.863759
0.845043
0.822971
0.794199
0.758722
0.705525
0.995916
0.987763
0.979539
0.971153
0.962581
0.953792
0.944723
0.935272
0.925319
0.914701
0.903254
0.890694
0.876792
0.860999
0.84303
0.821744
0.796895
0.766127
0.729764
0.684909
0.995487
0.986496
0.977378
0.968024
0.958435
0.948585
0.938396
0.927749
0.916517
0.904525
0.891607
0.877476
0.861908
0.844392
0.824664
0.801808
0.775645
0.744746
0.709371
0.667749
0.995057
0.985239
0.975235
0.964913
0.954306
0.943399
0.932108
0.9203
0.907841
0.894554
0.880274
0.864727
0.847699
0.828742
0.807628
0.783638
0.756678
0.72568
0.690913
0.650648
0.994629
0.983998
0.973125
0.961845
0.950232
0.938292
0.925937
0.913025
0.899416
0.884937
0.869427
0.852633
0.834361
0.81422
0.792035
0.767209
0.739728
0.708668
0.674467
0.635515
0.994206
0.982783
0.971069
0.958857
0.946266
0.933333
0.919968
0.906021
0.891351
0.875789
0.859187
0.841312
0.821998
0.800903
0.777899
0.752478
0.724694
0.693745
0.660193
0.622559
0.993794
0.981606
0.969087
0.955982
0.942454
0.928574
0.91426
0.899354
0.883713
0.867177
0.849612
0.83081
0.810627
0.788767
0.765142
0.739319
0.711401
0.680703
0.647808
0.611375
0.993396
0.980477
0.967198
0.953246
0.93883
0.924061
0.908862
0.893073
0.876552
0.859148
0.840741
0.821145
0.80024
0.777773
0.753682
0.727605
0.699669
0.669293
0.637024
0.601682
0.993015
0.979407
0.965417
0.950673
0.935426
0.919827
0.903812
0.88722
0.869907
0.851734
0.832594
0.812324
0.790824
0.767876
0.743442
0.71722
0.689342
0.659323
0.62765
0.593313
0.992657
0.978402
0.963756
0.948279
0.932263
0.915901
0.899142
0.881824
0.863806
0.844957
0.825184
0.804345
0.782355
0.759032
0.73435
0.708061
0.68029
0.650643
0.619537
0.586128
0.992323
0.977471
0.962224
0.946079
0.929361
0.912304
0.894873
0.876907
0.858265
0.838828
0.818511
0.797193
0.774804
0.75119
0.726333
0.700034
0.672403
0.643128
0.612555
0.579995
0.992016
0.976619
0.96083
0.944083
0.926733
0.909053
0.891022
0.872483
0.853295
0.833348
0.812568
0.790852
0.768139
0.744301
0.719325
0.693055
0.665583
0.636667
0.606587
0.574797
0.991739
0.975849
0.959577
0.942298
0.924389
0.906157
0.887598
0.868558
0.848897
0.828515
0.807344
0.785299
0.762324
0.738318
0.713266
0.687049
0.659741
0.631165
0.601533
0.570432
0.991494
0.975165
0.95847
0.94073
0.922337
0.903626
0.884608
0.865135
0.845072
0.824322
0.802825
0.78051
0.757327
0.733195
0.708098
0.681949
0.654802
0.626536
0.597305
0.566809
0.991282
0.974567
0.95751
0.939385
0.920583
0.901463
0.882053
0.862215
0.841813
0.820758
0.798994
0.776461
0.753115
0.72889
0.70377
0.677693
0.650697
0.622707
0.593826
0.563852
0.991104
0.974056
0.956705
0.938271
0.919134
0.899671
0.879934
0.859794
0.839116
0.817813
0.795834
0.773128
0.749656
0.725365
0.700236
0.674231
0.647369
0.619617
0.591033
0.561497
0.990957
0.973637
0.956064
0.937396
0.917991
0.89825
0.878249
0.857868
0.836972
0.815475
0.793329
0.770491
0.746924
0.722587
0.697459
0.671518
0.644771
0.617214
0.588872
0.55969
0.990845
0.973341
0.95562
0.936773
0.917149
0.897186
0.876987
0.85643
0.835374
0.813733
0.791464
0.76853
0.744896
0.720529
0.695406
0.669517
0.642861
0.615458
0.587304
0.558391
0.990875
0.973326
0.955527
0.936489
0.916638
0.896489
0.876149
0.855477
0.834315
0.812579
0.790227
0.767231
0.743554
0.719169
0.694051
0.668199
0.641608
0.614313
0.586297
0.55758
0.990502
0.97328
0.955776
0.936578
0.916477
0.896169
0.875744
0.855011
0.833794
0.812007
0.789614
0.766585
0.742887
0.718493
0.693378
0.667546
0.640988
0.613749
0.585813
0.55723
0.64218
0.57618
0.512217
0.443144
0.37096
0.300285
0.232588
0.168041
0.107093
0.0515789
0.63445
0.566161
0.500497
0.436243
0.369742
0.30408
0.241393
0.181773
0.125942
0.0749935
0.621152
0.556081
0.491293
0.431391
0.370678
0.309741
0.251225
0.195784
0.143835
0.0957299
0.607307
0.547001
0.484432
0.42753
0.37153
0.314938
0.260073
0.208094
0.159329
0.113983
0.594656
0.538716
0.479138
0.424758
0.372545
0.31988
0.268288
0.219232
0.173205
0.130226
0.583437
0.531216
0.474939
0.422952
0.373749
0.324468
0.275824
0.229304
0.185603
0.144677
0.573591
0.52455
0.471543
0.421891
0.37514
0.3287
0.282681
0.238395
0.196687
0.157547
0.565041
0.518743
0.468784
0.421373
0.376684
0.332599
0.288877
0.246574
0.206597
0.169017
0.557686
0.513758
0.466544
0.421226
0.378314
0.336184
0.294444
0.253901
0.215442
0.179229
0.551407
0.509526
0.464732
0.421322
0.379962
0.339463
0.299417
0.260424
0.223305
0.188297
0.546083
0.505963
0.463273
0.421565
0.381564
0.342437
0.303827
0.26619
0.230254
0.196308
0.541602
0.502986
0.4621
0.421883
0.383065
0.345095
0.3077
0.271239
0.236347
0.203337
0.537863
0.500515
0.461155
0.42222
0.384421
0.347426
0.311054
0.275603
0.241627
0.209444
0.534776
0.498477
0.460385
0.42253
0.385596
0.349419
0.313902
0.279308
0.246123
0.214679
0.532265
0.496808
0.459743
0.422775
0.38656
0.351059
0.316252
0.282379
0.249854
0.21899
0.530263
0.495453
0.459191
0.422927
0.387288
0.352336
0.31811
0.28484
0.2529
0.222601
0.528716
0.494368
0.4587
0.422964
0.387767
0.353242
0.31948
0.286703
0.255248
0.225401
0.527577
0.493507
0.45823
0.422857
0.387974
0.353768
0.320366
0.287982
0.256919
0.22744
0.526833
0.49285
0.45774
0.422537
0.387833
0.353846
0.320714
0.288637
0.257896
0.228736
0.526536
0.492528
0.457377
0.422121
0.387409
0.353492
0.320501
0.288615
0.258085
0.229148
)
;

boundaryField
{
    bottom
    {
        type            symmetryPlane;
    }
    right
    {
        type            fixedValue;
        value           uniform 0;
    }
    top
    {
        type            symmetryPlane;
    }
    left
    {
        type            fixedValue;
        value           uniform 1;
    }
    cylinder
    {
        type            zeroGradient;
    }
    defaultFaces
    {
        type            empty;
    }
}


// ************************************************************************* //
