/*--------------------------------*- C++ -*----------------------------------*\
| =========                 |                                                 |
| \\      /  F ield         | OpenFOAM: The Open Source CFD Toolbox           |
|  \\    /   O peration     | Version:  4.1                                   |
|   \\  /    A nd           | Web:      www.OpenFOAM.org                      |
|    \\/     M anipulation  |                                                 |
\*---------------------------------------------------------------------------*/
FoamFile
{
    version     2.0;
    format      ascii;
    class       volScalarField;
    location    "2.1";
    object      p;
}
// * * * * * * * * * * * * * * * * * * * * * * * * * * * * * * * * * * * * * //

dimensions      [0 2 -2 0 0 0 0];

internalField   nonuniform List<scalar> 
2000
(
0.170738
0.178146
0.18576
0.194816
0.204389
0.213219
0.22057
0.226165
0.229809
0.231505
0.169414
0.177432
0.186163
0.196755
0.208022
0.218511
0.227399
0.234357
0.23917
0.242244
0.169598
0.178261
0.188265
0.200556
0.21362
0.225806
0.236231
0.244565
0.25066
0.255114
0.171644
0.18098
0.192392
0.206503
0.221405
0.23526
0.247148
0.256765
0.264039
0.269693
0.17591
0.185932
0.198856
0.214859
0.23158
0.247024
0.260268
0.271056
0.279402
0.286114
0.182746
0.193446
0.20795
0.225849
0.244307
0.261208
0.275661
0.287482
0.296783
0.304429
0.19248
0.203827
0.21993
0.23966
0.259707
0.277887
0.293374
0.306076
0.31621
0.324659
0.205404
0.217338
0.235002
0.256422
0.277851
0.297091
0.313414
0.326833
0.337677
0.346792
0.22176
0.234187
0.253311
0.276208
0.298755
0.318802
0.335744
0.349706
0.36113
0.370757
0.241719
0.254512
0.274928
0.299017
0.322374
0.34295
0.360281
0.374606
0.386459
0.396414
0.200773
0.204881
0.208369
0.211258
0.212965
0.213054
0.211407
0.20811
0.203366
0.197426
0.199849
0.204026
0.207556
0.210525
0.212355
0.212604
0.211141
0.208041
0.2035
0.197755
0.198049
0.202353
0.205979
0.20911
0.211188
0.211757
0.210662
0.207952
0.203815
0.198455
0.19546
0.199951
0.203733
0.207116
0.209575
0.210626
0.210077
0.207941
0.204392
0.199596
0.192211
0.196951
0.200956
0.204697
0.207677
0.209372
0.209539
0.208147
0.205351
0.201277
0.188471
0.193521
0.19783
0.202049
0.2057
0.208201
0.209242
0.208742
0.206838
0.203618
0.184448
0.189867
0.194575
0.199409
0.20389
0.207352
0.209407
0.209921
0.209021
0.206757
0.180382
0.186224
0.191445
0.197051
0.202527
0.207092
0.210268
0.211872
0.212045
0.210793
0.176543
0.18286
0.188725
0.195282
0.201931
0.207748
0.212143
0.214885
0.216093
0.215604
0.173224
0.180064
0.186723
0.194429
0.202449
0.209694
0.215485
0.219556
0.221855
0.221523
0.190492
0.182698
0.174317
0.165491
0.156313
0.14686
0.137198
0.127376
0.117435
0.107403
0.0973048
0.0871568
0.0769729
0.0667635
0.0565368
0.0462991
0.0360556
0.0258106
0.0155603
0.00535068
0.190871
0.183161
0.174875
0.16611
0.15696
0.147515
0.137844
0.128004
0.118034
0.107967
0.0978266
0.0876326
0.0773989
0.0671368
0.0568549
0.0465597
0.0362562
0.0259487
0.0156352
0.00537528
0.191679
0.184137
0.176028
0.167374
0.158275
0.14884
0.139152
0.129271
0.119242
0.109102
0.0988775
0.0885899
0.0782557
0.0678875
0.057495
0.0470858
0.0366654
0.0262364
0.0157905
0.00541799
0.192977
0.185679
0.177811
0.169302
0.160266
0.15084
0.141121
0.131176
0.121058
0.110807
0.100455
0.0900269
0.0795418
0.0690143
0.0584559
0.0478758
0.0372823
0.0266864
0.0160994
0.00549424
0.194863
0.187877
0.180287
0.171934
0.162961
0.153537
0.143769
0.133733
0.12349
0.113088
0.102564
0.0919476
0.0812601
0.0705195
0.0597396
0.0489315
0.0381035
0.0272606
0.0163924
0.00556394
0.197444
0.190822
0.18352
0.17531
0.166388
0.156948
0.147107
0.136948
0.126544
0.115951
0.10521
0.094357
0.0834164
0.0724092
0.0613514
0.0502554
0.0391313
0.0279888
0.016833
0.00572157
0.20084
0.194617
0.187578
0.179474
0.170575
0.161095
0.151151
0.140834
0.130228
0.119397
0.10839
0.0972471
0.0859986
0.0746687
0.0632766
0.0518377
0.0403645
0.028869
0.0173524
0.0058597
0.205142
0.199355
0.192537
0.184466
0.175534
0.165971
0.155887
0.14538
0.134539
0.123437
0.112128
0.100656
0.0890564
0.0773563
0.0655777
0.0537383
0.0418521
0.0299323
0.0179829
0.00604909
0.209998
0.204848
0.198361
0.190327
0.181324
0.171618
0.161321
0.150545
0.139391
0.127941
0.116257
0.10439
0.0923779
0.0802537
0.068042
0.0557622
0.0434297
0.0310581
0.0186519
0.00625147
0.215206
0.21108
0.205085
0.197226
0.188246
0.178459
0.168002
0.156997
0.14555
0.133749
0.121664
0.109352
0.096856
0.0842138
0.0714544
0.0586015
0.0456739
0.0326881
0.0196489
0.00658792
0.225893
0.219072
0.211916
0.203289
0.193591
0.183179
0.172196
0.160732
0.148874
0.136699
0.124269
0.111633
0.0988333
0.0859021
0.072867
0.0597497
0.0465674
0.0333338
0.020052
0.00673573
0.231576
0.222703
0.214182
0.204794
0.194585
0.183819
0.172601
0.160984
0.149026
0.136787
0.124317
0.111657
0.0988431
0.0859032
0.0728617
0.0597382
0.0465482
0.0333039
0.0200128
0.00668772
0.236472
0.226457
0.216961
0.20687
0.196143
0.184978
0.173459
0.161618
0.149493
0.13713
0.124568
0.11184
0.0989743
0.0859951
0.0729232
0.0597752
0.0465653
0.0333042
0.0200037
0.00666529
0.241113
0.23027
0.219934
0.209173
0.19794
0.186384
0.17456
0.162482
0.150176
0.137671
0.124997
0.112181
0.0992441
0.086207
0.0730866
0.0598974
0.0466519
0.0333588
0.0200324
0.00665983
0.245488
0.233917
0.222833
0.211464
0.199764
0.187838
0.175718
0.163405
0.150912
0.13826
0.125469
0.112558
0.0995442
0.0864435
0.0732699
0.0600351
0.04675
0.0334211
0.0200647
0.00665552
0.249537
0.237346
0.225617
0.213714
0.201591
0.189321
0.176917
0.164374
0.151695
0.138892
0.125978
0.112967
0.099871
0.0867018
0.0734704
0.0601861
0.046858
0.0334904
0.0201014
0.00665443
0.253245
0.24054
0.22826
0.215892
0.20339
0.190803
0.178134
0.16537
0.152509
0.139555
0.126518
0.113404
0.100222
0.0869805
0.0736879
0.0603508
0.0469768
0.0335678
0.0201434
0.00665704
0.256617
0.243488
0.230738
0.217964
0.205127
0.192254
0.179339
0.166368
0.153332
0.140233
0.127073
0.113856
0.100587
0.0872724
0.0739167
0.060525
0.0471031
0.0336509
0.0201893
0.00666257
0.259663
0.246181
0.233031
0.219909
0.206777
0.193648
0.180511
0.167347
0.154148
0.140909
0.12763
0.114313
0.100959
0.0875703
0.0741512
0.0607041
0.0472336
0.0337375
0.0202375
0.00667043
0.262392
0.248619
0.235132
0.221711
0.208323
0.194967
0.181629
0.16829
0.154939
0.14157
0.128179
0.114765
0.101328
0.0878676
0.074386
0.0608843
0.0473654
0.0338255
0.020287
0.00668007
0.26482
0.250804
0.237034
0.22336
0.20975
0.196195
0.182679
0.169182
0.155693
0.142203
0.128708
0.115203
0.101687
0.0881581
0.0746163
0.0610615
0.0474954
0.0339129
0.0203364
0.00669093
0.266959
0.252743
0.238737
0.224849
0.211049
0.197322
0.183648
0.170011
0.156398
0.142799
0.129208
0.115619
0.102029
0.0884359
0.0748373
0.0612321
0.047621
0.0339976
0.0203845
0.00670245
0.268825
0.254442
0.240241
0.226173
0.212212
0.198337
0.184527
0.170767
0.157044
0.143348
0.129671
0.116006
0.102349
0.0886957
0.0750446
0.0613925
0.0477395
0.0340778
0.0204304
0.00671411
0.27043
0.255911
0.241548
0.227332
0.213236
0.199235
0.185309
0.171443
0.157624
0.143843
0.130089
0.116356
0.102639
0.088933
0.0752344
0.0615398
0.0478485
0.0341518
0.0204728
0.00672543
0.271785
0.257155
0.242662
0.228324
0.214116
0.20001
0.185987
0.172032
0.158132
0.144277
0.130458
0.116666
0.102897
0.0891437
0.0754032
0.0616711
0.0479459
0.0342181
0.020511
0.00673597
0.272901
0.258182
0.243584
0.229149
0.214852
0.200661
0.186558
0.172529
0.158562
0.144646
0.130772
0.116931
0.103117
0.0893244
0.0755483
0.0617841
0.0480298
0.0342754
0.020544
0.00674535
0.273786
0.258998
0.24432
0.229809
0.215441
0.201184
0.187018
0.17293
0.15891
0.144946
0.131027
0.117147
0.103297
0.0894723
0.0756672
0.0618769
0.0480989
0.0343227
0.0205713
0.00675328
0.274447
0.259608
0.24487
0.230303
0.215884
0.201577
0.187365
0.173234
0.159174
0.145173
0.131221
0.117311
0.103434
0.0895851
0.0757581
0.0619478
0.0481517
0.0343589
0.0205923
0.00675951
0.274892
0.260016
0.245237
0.230633
0.21618
0.201841
0.187597
0.173438
0.159351
0.145326
0.131352
0.117422
0.103527
0.0896613
0.0758195
0.0619958
0.0481875
0.0343835
0.0206065
0.00676438
0.275136
0.260232
0.245426
0.2308
0.216329
0.201973
0.187714
0.17354
0.15944
0.145402
0.131418
0.117477
0.103573
0.0896996
0.0758503
0.0620199
0.0482054
0.0343961
0.0206128
0.00677011
0.404542
0.379223
0.355448
0.333346
0.312997
0.294411
0.277595
0.262384
0.248835
0.23573
0.411355
0.386734
0.363477
0.341661
0.321357
0.30256
0.285324
0.269402
0.255297
0.241559
0.417298
0.393363
0.370625
0.349138
0.328981
0.310139
0.292725
0.276443
0.261972
0.247637
0.422389
0.39902
0.376708
0.355509
0.335503
0.316671
0.29915
0.282617
0.267751
0.253056
0.426771
0.403887
0.381952
0.36102
0.34117
0.322378
0.304784
0.288088
0.272916
0.258036
0.430564
0.408111
0.386514
0.365836
0.346145
0.327421
0.309795
0.293011
0.277596
0.262572
0.433831
0.411776
0.390493
0.370054
0.350521
0.331881
0.314248
0.297415
0.281805
0.266662
0.436665
0.414965
0.393972
0.373757
0.354379
0.33583
0.318207
0.301348
0.285585
0.270341
0.439125
0.417746
0.39702
0.377014
0.357784
0.33933
0.321729
0.304859
0.288975
0.27364
0.44126
0.420171
0.399691
0.37988
0.360792
0.342431
0.32486
0.307986
0.292005
0.276584
0.443109
0.422285
0.402029
0.382401
0.363447
0.345177
0.327638
0.310764
0.294701
0.279197
0.444704
0.42412
0.404072
0.384613
0.365785
0.3476
0.330096
0.313222
0.297088
0.281499
0.446071
0.425707
0.405849
0.386546
0.367837
0.349732
0.332261
0.315386
0.299185
0.283511
0.447231
0.427067
0.407384
0.388227
0.369627
0.351596
0.334155
0.317274
0.301011
0.285247
0.448201
0.428221
0.408699
0.389675
0.371176
0.353212
0.335797
0.318907
0.30258
0.286722
0.448994
0.429182
0.409808
0.390906
0.372499
0.354595
0.337201
0.320297
0.303905
0.287949
0.449622
0.429963
0.410724
0.391934
0.373611
0.355759
0.338382
0.321457
0.304998
0.288937
0.450092
0.430572
0.411455
0.392766
0.374517
0.356711
0.339343
0.322394
0.305864
0.289693
0.450416
0.431023
0.412018
0.39342
0.375238
0.357469
0.340104
0.323122
0.306516
0.290228
0.450574
0.431306
0.412412
0.393906
0.375791
0.358058
0.340695
0.323677
0.30699
0.290573
0.692908
0.689181
0.682413
0.674281
0.665006
0.654157
0.641262
0.626448
0.612165
0.607399
0.666415
0.660768
0.651922
0.642293
0.631553
0.618906
0.603866
0.586709
0.57014
0.563639
0.637865
0.630652
0.620511
0.609646
0.597427
0.582972
0.565854
0.546511
0.527835
0.519776
0.607241
0.599111
0.588233
0.576392
0.562847
0.546745
0.52775
0.506494
0.485961
0.476584
0.575887
0.567051
0.555612
0.542931
0.528222
0.510682
0.490065
0.467251
0.445222
0.43478
0.544413
0.53498
0.523101
0.509717
0.49402
0.475268
0.453303
0.429229
0.40632
0.394979
0.513149
0.503249
0.491075
0.477151
0.460665
0.440961
0.417946
0.392812
0.369982
0.3578
0.482429
0.472204
0.459888
0.445604
0.428549
0.408152
0.384458
0.35899
0.336334
0.323594
0.452565
0.442176
0.429892
0.415428
0.398027
0.377267
0.353325
0.327931
0.305694
0.292702
0.423674
0.413524
0.401396
0.386901
0.369415
0.348601
0.324775
0.299841
0.278363
0.26537
0.864164
0.86201
0.860757
0.860493
0.86124
0.862974
0.865547
0.868578
0.872472
0.881656
0.861041
0.858642
0.857231
0.856783
0.857286
0.858718
0.860928
0.863533
0.866938
0.875836
0.854796
0.851924
0.850206
0.849392
0.849415
0.850246
0.851727
0.853481
0.856
0.864226
0.845445
0.841906
0.839745
0.838397
0.837715
0.837668
0.838079
0.838589
0.839826
0.847054
0.833019
0.828657
0.825943
0.823905
0.822314
0.821136
0.820168
0.819078
0.818671
0.82462
0.817556
0.812266
0.808915
0.806057
0.803381
0.800852
0.79824
0.795242
0.792881
0.797313
0.799155
0.79287
0.788831
0.785047
0.781138
0.777078
0.772601
0.767449
0.762889
0.765617
0.777765
0.770517
0.76583
0.761073
0.755838
0.750119
0.74362
0.736136
0.729205
0.730099
0.753658
0.745523
0.740265
0.734458
0.727809
0.720351
0.711732
0.701809
0.692415
0.691407
0.725416
0.717981
0.712396
0.705485
0.697423
0.688218
0.677438
0.665044
0.653169
0.650253
0.995764
0.987403
0.979166
0.970986
0.962861
0.954817
0.946882
0.939075
0.931419
0.923923
0.916655
0.909643
0.902912
0.896496
0.890433
0.884766
0.879542
0.874807
0.870614
0.867013
0.995722
0.987278
0.978951
0.970679
0.96246
0.954321
0.946287
0.938376
0.930605
0.923007
0.915626
0.90849
0.901624
0.895059
0.888834
0.882986
0.877557
0.872591
0.868133
0.864223
0.995642
0.987027
0.978518
0.97006
0.961654
0.953322
0.945088
0.936969
0.928979
0.921173
0.913568
0.906184
0.899048
0.892189
0.885638
0.879428
0.873591
0.868162
0.863172
0.858634
0.995522
0.986649
0.977869
0.969139
0.960458
0.951847
0.943326
0.934905
0.926576
0.918444
0.910499
0.902745
0.895206
0.887907
0.88087
0.874118
0.867671
0.861545
0.855753
0.85025
0.995361
0.986144
0.977006
0.967911
0.958859
0.949865
0.940946
0.932114
0.923412
0.914862
0.906454
0.898203
0.890129
0.882247
0.874566
0.867094
0.859833
0.852776
0.845911
0.839082
0.995156
0.98551
0.975924
0.966378
0.956874
0.947427
0.938049
0.928646
0.919457
0.910385
0.901409
0.892548
0.883814
0.87521
0.86673
0.858364
0.850089
0.841867
0.833666
0.825142
0.994915
0.984766
0.974661
0.964587
0.954543
0.944528
0.934473
0.924643
0.914884
0.905165
0.895508
0.885924
0.876407
0.866945
0.857516
0.848085
0.838599
0.828972
0.819166
0.808533
0.994615
0.983846
0.973105
0.962409
0.951735
0.940965
0.930391
0.919903
0.90942
0.898955
0.888517
0.878096
0.867671
0.857212
0.846674
0.835994
0.825091
0.81382
0.802177
0.789106
0.994341
0.983008
0.971659
0.9602
0.948766
0.937534
0.926301
0.915043
0.903777
0.892504
0.881211
0.869874
0.858459
0.846916
0.835179
0.823148
0.810696
0.797577
0.783804
0.767631
0.993848
0.981525
0.969218
0.957045
0.944909
0.932765
0.920612
0.908448
0.896257
0.884018
0.871701
0.859265
0.846654
0.83379
0.820567
0.806842
0.79244
0.777065
0.76077
0.741412
0.993659
0.980971
0.968277
0.955569
0.942834
0.930071
0.917271
0.904413
0.891471
0.878414
0.8652
0.851775
0.838064
0.82397
0.809361
0.794061
0.777836
0.760281
0.740938
0.717906
0.993521
0.980557
0.967578
0.954578
0.941549
0.928477
0.915344
0.902124
0.88879
0.875306
0.861627
0.847696
0.833439
0.818758
0.80353
0.787595
0.77075
0.752707
0.73325
0.71185
0.993396
0.98017
0.966917
0.953639
0.940323
0.92695
0.913498
0.899941
0.88625
0.872386
0.858305
0.843949
0.829248
0.814113
0.798435
0.782083
0.7649
0.746702
0.727321
0.706501
0.99327
0.979783
0.966258
0.952699
0.939092
0.925416
0.911647
0.897758
0.883718
0.869488
0.855023
0.84027
0.825162
0.809621
0.793554
0.776853
0.759398
0.741061
0.72169
0.70117
0.993147
0.979405
0.965614
0.951785
0.9379
0.923937
0.909871
0.895673
0.881311
0.866749
0.851944
0.836843
0.821389
0.805513
0.789136
0.772173
0.754527
0.736111
0.716807
0.696575
0.993029
0.979041
0.964998
0.950911
0.936765
0.922534
0.908192
0.893711
0.87906
0.864204
0.849101
0.833705
0.817964
0.801819
0.785205
0.768054
0.750291
0.731855
0.712658
0.692684
0.992916
0.978696
0.964414
0.950085
0.935694
0.921214
0.906619
0.89188
0.87697
0.861852
0.846491
0.830843
0.814865
0.798505
0.781709
0.764425
0.746594
0.728174
0.709094
0.689353
0.992809
0.978371
0.963866
0.949311
0.934693
0.919983
0.905157
0.890186
0.875043
0.859696
0.844112
0.828252
0.812077
0.795544
0.778611
0.761234
0.743369
0.724987
0.706029
0.686505
0.992709
0.978069
0.963356
0.948593
0.933766
0.918847
0.903811
0.888633
0.873284
0.857737
0.84196
0.825921
0.809585
0.792916
0.77588
0.758441
0.740566
0.722235
0.703401
0.684081
0.992617
0.97779
0.962887
0.947934
0.932917
0.917809
0.902586
0.887222
0.871693
0.855972
0.840031
0.823842
0.807374
0.790598
0.773485
0.756007
0.738139
0.719868
0.701158
0.682025
0.992533
0.977536
0.962461
0.947335
0.932148
0.916871
0.90148
0.885953
0.870266
0.854396
0.838316
0.822001
0.805426
0.788566
0.771397
0.753898
0.736049
0.717841
0.699249
0.680289
0.992457
0.977307
0.962078
0.946799
0.931459
0.916032
0.900494
0.884825
0.869002
0.853003
0.836806
0.820387
0.803726
0.786801
0.769592
0.752083
0.73426
0.716116
0.697634
0.67883
0.99239
0.977104
0.961738
0.946324
0.93085
0.915292
0.899627
0.883834
0.867894
0.851787
0.835491
0.818988
0.802257
0.785282
0.768046
0.750536
0.732741
0.71466
0.696279
0.677614
0.992331
0.976927
0.961443
0.945911
0.930322
0.91465
0.898875
0.882978
0.866939
0.850741
0.834364
0.817791
0.801006
0.783992
0.766738
0.749232
0.731467
0.713444
0.695153
0.676609
0.992281
0.976776
0.961191
0.945559
0.929871
0.914105
0.898238
0.882252
0.866132
0.849858
0.833415
0.816787
0.799958
0.782916
0.765649
0.748151
0.730416
0.712443
0.694231
0.675791
0.992239
0.97665
0.960981
0.945267
0.929499
0.913654
0.897711
0.881654
0.865467
0.849133
0.832637
0.815965
0.799103
0.782039
0.764766
0.747277
0.729567
0.71164
0.693494
0.675141
0.992205
0.97655
0.960815
0.945035
0.929203
0.913295
0.897293
0.88118
0.864941
0.84856
0.832023
0.815317
0.79843
0.781352
0.764075
0.746594
0.728907
0.711016
0.692924
0.674641
0.99218
0.976475
0.960691
0.944861
0.928981
0.913028
0.896981
0.880827
0.864549
0.848134
0.831568
0.814838
0.797933
0.780845
0.763565
0.746092
0.728422
0.71056
0.692509
0.674279
0.992163
0.976425
0.960608
0.944746
0.928835
0.91285
0.896775
0.880593
0.86429
0.847852
0.831266
0.814521
0.797605
0.78051
0.76323
0.745762
0.728105
0.710262
0.69224
0.674045
0.992153
0.976401
0.960568
0.944689
0.928761
0.912762
0.896672
0.880476
0.864161
0.847712
0.831117
0.814363
0.797442
0.780344
0.763064
0.745598
0.727948
0.710116
0.692109
0.673938
0.692712
0.665636
0.637956
0.608662
0.578545
0.548275
0.518132
0.488392
0.459347
0.431286
0.689226
0.661127
0.633678
0.605875
0.577326
0.548597
0.519981
0.491693
0.463996
0.437197
0.684265
0.65686
0.630287
0.603892
0.576732
0.549277
0.521899
0.494802
0.468208
0.442347
0.679563
0.653263
0.627604
0.602309
0.576302
0.549926
0.523589
0.497485
0.471797
0.446735
0.675457
0.650189
0.625402
0.601002
0.575957
0.550505
0.525051
0.499788
0.474883
0.450519
0.671911
0.647564
0.623583
0.599928
0.575685
0.551022
0.52632
0.501771
0.477529
0.453808
0.66887
0.645335
0.622068
0.599034
0.575458
0.551469
0.527412
0.503476
0.479795
0.456506
0.666287
0.64345
0.620794
0.598278
0.575259
0.551845
0.528345
0.504939
0.481759
0.458946
0.664104
0.64186
0.619714
0.597627
0.575074
0.552151
0.529132
0.506189
0.48345
0.461046
0.662265
0.640517
0.61879
0.597055
0.574893
0.552389
0.529787
0.50725
0.484898
0.462857
0.660719
0.639381
0.617992
0.596543
0.574707
0.552561
0.530321
0.508139
0.486131
0.464414
0.659424
0.638417
0.617295
0.596076
0.57451
0.552669
0.530743
0.508873
0.48717
0.465744
0.658343
0.637596
0.61668
0.595642
0.574299
0.552717
0.531062
0.509467
0.488035
0.46687
0.657446
0.636895
0.61613
0.59523
0.574068
0.552705
0.531285
0.509931
0.488741
0.46781
0.656707
0.636292
0.615632
0.594834
0.573816
0.552636
0.531418
0.510275
0.4893
0.46858
0.656107
0.635774
0.615177
0.594446
0.57354
0.55251
0.531464
0.510506
0.489721
0.469192
0.655629
0.635327
0.614755
0.594062
0.573238
0.552328
0.531427
0.510629
0.490014
0.469655
0.655263
0.634945
0.614363
0.593682
0.572912
0.552095
0.531314
0.510652
0.490184
0.469977
0.654993
0.634608
0.613984
0.593291
0.572552
0.551805
0.53112
0.510576
0.490239
0.470169
0.654831
0.634327
0.6136
0.592844
0.572097
0.55139
0.530783
0.510343
0.490129
0.47019
)
;

boundaryField
{
    bottom
    {
        type            symmetryPlane;
    }
    right
    {
        type            fixedValue;
        value           uniform 0;
    }
    top
    {
        type            symmetryPlane;
    }
    left
    {
        type            fixedValue;
        value           uniform 1;
    }
    cylinder
    {
        type            zeroGradient;
    }
    defaultFaces
    {
        type            empty;
    }
}


// ************************************************************************* //
