/*--------------------------------*- C++ -*----------------------------------*\
| =========                 |                                                 |
| \\      /  F ield         | OpenFOAM: The Open Source CFD Toolbox           |
|  \\    /   O peration     | Version:  4.1                                   |
|   \\  /    A nd           | Web:      www.OpenFOAM.org                      |
|    \\/     M anipulation  |                                                 |
\*---------------------------------------------------------------------------*/
FoamFile
{
    version     2.0;
    format      ascii;
    class       surfaceScalarField;
    location    "2.1";
    object      phi;
}
// * * * * * * * * * * * * * * * * * * * * * * * * * * * * * * * * * * * * * //

dimensions      [0 3 -1 0 0 0 0];

internalField   nonuniform List<scalar> 
3890
(
0.000624686
-0.00424259
0.00361791
0.00207209
-0.0117496
0.0103022
0.00400624
-0.0177686
0.0158345
0.00616353
-0.0221336
0.0199764
0.00836333
-0.024992
0.0227922
0.0105009
-0.0266383
0.0245007
0.0125264
-0.0273967
0.0253711
0.0144239
-0.0275557
0.0256582
0.0162044
-0.0273558
0.0255752
-0.0270102
0.0253347
0.01788
0.000673376
-0.00491597
0.0021756
-0.0132519
0.00412024
-0.0197133
0.00622508
-0.0242385
0.00831301
-0.0270799
0.010295
-0.0286202
0.0121425
-0.0292442
0.0138631
-0.0292763
0.015478
-0.0289706
-0.0285237
0.0169914
0.000716107
-0.00563207
0.00225375
-0.0147895
0.00417917
-0.0216387
0.0061978
-0.0262571
0.00814178
-0.0290239
0.00994009
-0.0304185
0.0115822
-0.0308863
0.0130875
-0.0307816
0.0144824
-0.0303655
-0.0298216
0.0157802
0.000750754
-0.00638283
0.0023005
-0.0163393
0.00417411
-0.0235123
0.00607259
-0.0281556
0.00784385
-0.0307951
0.00943857
-0.0320133
0.0108651
-0.0323129
0.0121561
-0.0320725
0.013346
-0.0315555
-0.0309326
0.014457
0.000775088
-0.00715792
0.00231011
-0.0178743
0.00409738
-0.0252996
0.00584204
-0.0299003
0.00741342
-0.0323665
0.00878561
-0.0333855
0.00998505
-0.0335123
0.0110556
-0.033143
0.0120381
-0.032538
-0.0318526
0.0129582
0.000786938
-0.00794486
0.0022779
-0.0193652
0.00394374
-0.0269654
0.00550295
-0.0314595
0.00685107
-0.0337147
0.00798614
-0.0345205
0.00895075
-0.0344769
0.00979726
-0.0339896
0.0105697
-0.0333105
-0.0325782
0.0112952
0.000784276
-0.00872913
0.00220021
-0.0207812
0.00371037
-0.0284756
0.00505572
-0.0328048
0.00616132
-0.0348203
0.0070484
-0.0354076
0.00777312
-0.0352016
0.00839346
-0.0346099
0.00895438
-0.0338714
-0.0331067
0.00948295
0.000765362
-0.00949449
0.00207474
-0.0220905
0.00339726
-0.0297981
0.00450454
-0.0339121
0.00535302
-0.0356687
0.0059852
-0.0360398
0.0064676
-0.035684
0.00686093
-0.0350032
0.007209
-0.0342194
-0.0334354
0.00753768
0.000728883
-0.0102234
0.00190079
-0.0232624
0.00300714
-0.0309044
0.003857
-0.0347619
0.00443843
-0.0362502
0.00481244
-0.0364138
0.00505257
-0.0359242
0.00521968
-0.0351703
0.00535486
-0.0343546
-0.0335619
0.00548138
0.0006741
-0.0108975
0.00167945
-0.0242678
0.00254546
-0.0317704
0.00312353
-0.03534
0.0034324
-0.0365591
0.00354816
-0.0365295
0.00354799
-0.035924
0.00349077
-0.0351131
0.00341405
-0.0342779
0.00333948
-0.0334874
0.00022121
-0.00022121
0.00100427
-0.000783064
0.00233547
-0.00133119
0.00414181
-0.00180634
0.0063263
-0.00218449
0.00878832
-0.00246202
0.0114351
-0.00264682
0.0141873
-0.00275218
0.0169793
-0.00279197
-0.00277215
0.0197514
0.000231406
-0.000452616
0.00103224
-0.0015839
0.00238389
-0.00268285
0.00420809
-0.00363054
0.00640513
-0.00438154
0.00887325
-0.00493013
0.0115195
-0.00529311
0.0142652
-0.00549786
0.017046
-0.0055728
-0.00553081
0.0198047
0.000250577
-0.000703192
0.00108732
-0.00242064
0.00247836
-0.00407389
0.00433715
-0.00548933
0.00655842
-0.00660281
0.00903765
-0.00740936
0.0116817
-0.00793715
0.0144133
-0.00822945
0.0171708
-0.00833035
-0.00826134
0.0199014
0.000278915
-0.000982108
0.00116788
-0.0033096
0.0026158
-0.00552181
0.00452332
-0.00739685
0.00677716
-0.00885664
0.00926922
-0.00990141
0.0119065
-0.0105744
0.0146145
-0.0109374
0.0173358
-0.0110517
-0.0109492
0.0200236
0.000315604
-0.00129771
0.00127123
-0.00426523
0.00279033
-0.00704091
0.00475665
-0.00936317
0.00704678
-0.0111468
0.0095487
-0.0124033
0.0121705
-0.0131962
0.0148422
-0.0136091
0.0175124
-0.0137218
-0.0135785
0.0201416
0.000359483
-0.00165719
0.00139335
-0.0052991
0.00299352
-0.00864108
0.0050231
-0.0113928
0.00734709
-0.0134708
0.00984983
-0.0149061
0.0124422
-0.0157886
0.0150608
-0.0162278
0.0176629
-0.0163238
-0.0161326
0.020217
0.000409014
-0.00206621
0.00152892
-0.006419
0.00321438
-0.0103265
0.00530485
-0.0134832
0.00765305
-0.015819
0.0101408
-0.0173939
0.0126838
-0.0183315
0.015228
-0.018772
0.017742
-0.0188379
-0.0185962
0.0202056
0.000462318
-0.00252853
0.00167148
-0.00762816
0.00343976
-0.0120948
0.0055808
-0.0156242
0.00793566
-0.0181738
0.0103859
-0.019844
0.0128543
-0.0207999
0.0152987
-0.0212165
0.0177013
-0.0212405
-0.0209521
0.0200572
0.000517327
-0.00304585
0.00181395
-0.00892478
0.00365531
-0.0139362
0.00582818
-0.0177971
0.00816346
-0.0205091
0.0105451
-0.0222257
0.0129068
-0.0231615
0.0152215
-0.0235312
0.0174903
-0.0235093
-0.0231801
0.0197183
0.000572049
0.00194951
0.00384777
0.00602701
0.00831009
0.0105851
0.0127946
0.0149216
0.0169876
0.0191422
0.0213157
-0.00156423
0.0226865
-0.00137085
0.0238805
-0.001194
0.0249148
-0.00103426
0.0258058
-0.000890976
0.0265691
-0.000763356
0.0272194
-0.000650296
0.0277698
-0.000550425
0.0282321
-0.000462315
0.0286168
-0.00038461
0.0289328
-0.000316072
0.0291884
-0.000255578
0.0293905
-0.000202118
0.0295453
-0.000154775
0.029658
-0.000112712
0.0297332
-7.51482e-05
0.0297745
-4.13027e-05
0.0297845
-1.00155e-05
0.0297691
1.5395e-05
3.81275e-05
0.0213371
-0.00309661
0.0226847
-0.00271846
0.0238626
-0.00237189
0.0248861
-0.00205773
0.0257702
-0.00177511
0.0265298
-0.00152298
0.0271789
-0.00129934
0.02773
-0.00110158
0.0281947
-0.000926968
0.0285829
-0.000772869
0.0289037
-0.000636865
0.0291649
-0.00051676
0.0293733
-0.000410567
0.0295351
-0.000316486
0.0296552
-0.000232871
0.0297383
-0.000158197
0.0297879
-9.09652e-05
0.0298071
-2.91913e-05
0.0297995
2.30422e-05
6.84867e-05
0.0213725
-0.00456779
0.0226754
-0.00402132
0.0238222
-0.00351871
0.0248248
-0.00306032
0.0256958
-0.00264608
0.0264483
-0.0022755
0.0270951
-0.00194615
0.027648
-0.00165444
0.0281175
-0.00139651
0.0285132
-0.00116861
0.0288436
-0.000967271
0.0291162
-0.000789303
0.0293374
-0.000631815
0.0295131
-0.00049218
0.0296483
-0.000367996
0.0297471
-0.000257057
0.0298134
-0.000157278
0.0298506
-6.64004e-05
0.0298589
1.47677e-05
8.22339e-05
0.0214068
-0.00595101
0.0226461
-0.00526053
0.0237488
-0.00462146
0.0247218
-0.00403335
0.0255743
-0.00349859
0.0263173
-0.00301842
0.0269616
-0.0025905
0.0275178
-0.0022106
0.0279953
-0.00187404
0.0284029
-0.00157617
0.0287482
-0.00131261
0.0290382
-0.00107934
0.0292791
-0.000872647
0.0294761
-0.000689186
0.029634
-0.00052589
0.0297569
-0.000379966
0.0298484
-0.000248832
0.0299119
-0.000129867
0.0299453
-1.8598e-05
7.16371e-05
0.0214151
-0.00722447
0.0225758
-0.00642125
0.0236246
-0.00567022
0.0245618
-0.00497054
0.0253926
-0.00432938
0.0261251
-0.00375101
0.0267684
-0.0032337
0.0273308
-0.00277303
0.0278206
-0.00236384
0.0282453
-0.00200088
0.0286117
-0.00167906
0.0289261
-0.00139367
0.0291938
-0.00114038
0.0294198
-0.000915174
0.0296083
-0.000714407
0.0297631
-0.00053472
0.0298873
-0.000373052
0.029984
-0.000226609
0.0300584
-9.30033e-05
3.01103e-05
0.0213646
-0.00837209
0.0224364
-0.007493
0.023425
-0.00665883
0.0243234
-0.00586894
0.0251322
-0.00513818
0.0258563
-0.00447518
0.026502
-0.00387938
0.0270757
-0.00334668
0.0275837
-0.0028719
0.0280323
-0.00244947
0.0284272
-0.00207391
0.0287735
-0.00174004
0.0290762
-0.00144307
0.0293396
-0.00117852
0.0295674
-0.000942259
0.0297632
-0.000730485
0.0299299
-0.000539736
0.0300701
-0.00036686
0.0301865
-0.000209437
-5.65272e-05
0.0212188
-0.00938524
0.0221957
-0.00846993
0.0231219
-0.00758499
0.0239821
-0.00672919
0.0247721
-0.00592821
0.0254931
-0.00519618
0.026148
-0.00453425
0.0267406
-0.00393926
0.0272752
-0.00340651
0.0277563
-0.00293057
0.0281883
-0.00250591
0.0285755
-0.00212723
0.0289219
-0.00178952
0.0292314
-0.001488
0.0295074
-0.00121821
0.0297528
-0.000975938
0.0299704
-0.000757301
0.0301622
-0.000558707
0.0303306
-0.000377787
-0.000199832
0.0209377
-0.0102657
0.0218214
-0.00935363
0.0226886
-0.0084522
0.0235153
-0.00755596
0.0242927
-0.00670558
0.0250179
-0.00592137
0.0256904
-0.00520676
0.0263112
-0.00456009
0.0268823
-0.00397758
0.0274061
-0.00345436
0.0278855
-0.00298532
0.0283237
-0.00256542
0.0287239
-0.00218977
0.0290895
-0.00185356
0.0294234
-0.00155214
0.0297285
-0.00128102
0.0300072
-0.00103597
0.0302614
-0.000812928
0.0304931
-0.000609487
-0.000404356
0.0204661
-0.0110134
0.0212741
-0.0101616
0.0220985
-0.00927664
0.0229076
-0.00836504
0.0236873
-0.00748523
0.0244299
-0.00666396
0.0251318
-0.00590872
0.0257918
-0.00522004
0.0264094
-0.00459527
0.0269855
-0.00403046
0.0275215
-0.00352128
0.0280194
-0.00306336
0.0284819
-0.00265223
0.0289117
-0.00228334
0.0293116
-0.00195206
0.0296844
-0.00165376
0.0300324
-0.00138396
0.0303575
-0.00113811
0.0306619
-0.000913807
-0.000681218
0.0198236
-0.0116948
0.0205572
-0.0108952
0.0213237
-0.0100432
0.0221124
-0.00915371
0.0229004
-0.00827326
0.0236718
-0.00743531
0.0244177
-0.00665459
0.0251328
-0.00593514
0.0258138
-0.00527629
0.026459
-0.00467565
0.027068
-0.00413028
0.0276416
-0.00363695
0.0281815
-0.00319211
0.0286899
-0.00279177
0.0291694
-0.00243158
0.0296226
-0.00210698
0.030052
-0.00181338
0.0304599
-0.00154596
0.0308493
-0.00130325
-0.00104846
0.0334626
-0.0102665
-0.0348909
0.0323336
-0.00976625
0.031402
-0.0091116
0.0306554
-0.00840703
0.0300741
-0.00769203
0.0296311
-0.00699225
0.0293006
-0.00632411
0.0290604
-0.00569493
0.0288912
-0.00510708
0.0287767
-0.00456118
0.0287036
-0.00405722
0.0286613
-0.00359468
0.0286415
-0.00317226
0.0286376
-0.00278786
0.0286446
-0.00243864
0.0286589
-0.00212122
0.0286775
-0.00183203
0.0286986
-0.00156704
0.0287221
-0.00132669
-0.00107399
0.0341836
-0.00908801
-0.0353621
0.0331271
-0.00870972
0.0322261
-0.00821058
0.0314707
-0.00765169
0.0308517
-0.00707303
0.0303555
-0.00649607
0.0299653
-0.00593386
0.0296638
-0.00539347
0.0294353
-0.00487852
0.0292654
-0.00439134
0.0291421
-0.00393387
0.0290549
-0.00350751
0.0289955
-0.00311284
0.028957
-0.00274938
0.0289341
-0.0024157
0.0289225
-0.00210962
0.028919
-0.00182857
0.0289213
-0.00156934
0.028928
-0.00133336
-0.00108191
0.0345799
-0.00801959
-0.0356484
0.0336175
-0.00774726
0.0327779
-0.00737099
0.0320587
-0.0069325
0.031452
-0.00646629
0.0309479
-0.00599201
0.0305349
-0.00552087
0.0302009
-0.0050595
0.0299344
-0.00461201
0.0297246
-0.00418154
0.0295617
-0.00377098
0.0294371
-0.00338284
0.029343
-0.00301882
0.0292733
-0.00267961
0.0292225
-0.00236488
0.0291863
-0.00207346
0.0291614
-0.00180366
0.029145
-0.00155293
0.029135
-0.00132339
-0.00107597
0.0348362
-0.00705426
-0.0358015
0.0339606
-0.00687164
0.0331851
-0.00659557
0.0325098
-0.0062572
0.0319286
-0.00588511
0.0314337
-0.00549706
0.0310163
-0.00510345
0.0306676
-0.00471081
0.0303792
-0.00432359
0.0301431
-0.00394543
0.0299518
-0.00357968
0.0297983
-0.00322939
0.0296764
-0.00289689
0.0295803
-0.00258358
0.0295054
-0.00228992
0.0294474
-0.00201547
0.029403
-0.00175927
0.0293695
-0.00151938
0.0293446
-0.00129853
-0.00105808
0.0350026
-0.00618996
-0.0358669
0.0342106
-0.0060797
0.0334985
-0.00588349
0.032868
-0.0056267
0.0323158
-0.00533292
0.0318363
-0.00501756
0.0314231
-0.00469021
0.0310696
-0.00435729
0.0307695
-0.00402352
0.0305169
-0.00369283
0.0303061
-0.00336884
0.0301315
-0.00305482
0.029988
-0.00275344
0.029871
-0.00246651
0.029776
-0.00219497
0.0296995
-0.00193896
0.0296383
-0.00169804
0.0295897
-0.00147079
0.0295516
-0.00126044
-0.00102915
0.035104
-0.00542256
-0.0358714
0.0343909
-0.00536659
0.0337399
-0.00523243
0.033154
-0.00504087
0.0326325
-0.00481135
0.0321718
-0.00455687
0.0317676
-0.00428602
0.0314153
-0.00400497
0.0311102
-0.00371847
0.030848
-0.0034306
0.0306242
-0.00314506
0.0304346
-0.00286521
0.030275
-0.00259385
0.0301415
-0.002333
0.0300305
-0.00208393
0.0299386
-0.00184713
0.0298632
-0.0016226
0.0298017
-0.00140931
0.0297521
-0.00121084
-0.000990513
0.0351578
-0.00474294
-0.0358374
0.034517
-0.00472585
0.0339234
-0.00463879
0.033381
-0.00449853
0.0328907
-0.00432099
0.0324508
-0.004117
0.0320589
-0.00389407
0.0317118
-0.00365789
0.0314064
-0.00341308
0.0311395
-0.00316366
0.0309077
-0.0029133
0.0307078
-0.00266531
0.0305365
-0.0024225
0.0303904
-0.00218699
0.0302667
-0.00196021
0.0301625
-0.00174293
0.0300754
-0.00153543
0.030003
-0.00133699
0.0299436
-0.00115143
-0.000943576
0.0351773
-0.00414036
-0.0357799
0.0346015
-0.00415004
0.0340606
-0.00409793
0.0335595
-0.00399741
0.0330999
-0.00386144
0.0326819
-0.00369896
0.0323042
-0.00351639
0.0319652
-0.00331887
0.0316628
-0.00311069
0.0313948
-0.00289566
0.0311588
-0.0026773
0.0309523
-0.0024588
0.0307727
-0.00224289
0.0306174
-0.0020317
0.0304839
-0.00182673
0.0303699
-0.00162892
0.0302732
-0.00143874
0.0301919
-0.00125573
0.0301243
-0.00108383
-0.00088961
0.0351728
-0.00360433
-0.0357088
0.0346542
-0.00363151
0.034161
-0.00360468
0.0336981
-0.00353452
0.0332681
-0.00343148
0.0328721
-0.00330289
0.0325098
-0.00315416
0.0321807
-0.00298977
0.0318837
-0.00281362
0.0316173
-0.00262923
0.0313798
-0.00243987
0.0311696
-0.00224853
0.0309845
-0.0020578
0.0308225
-0.00186975
0.0306817
-0.00168591
0.03056
-0.00150728
0.0304558
-0.00133447
0.0303673
-0.00116722
0.0302929
-0.00100945
-0.000829782
0.0351519
-0.00312518
-0.0356311
0.0346833
-0.00316286
0.0342324
-0.00315382
0.0338044
-0.00310651
0.0334023
-0.00302935
0.0330277
-0.00292826
0.0326813
-0.00280775
0.0323632
-0.00267167
0.032073
-0.00252345
0.03181
-0.00236626
0.0315732
-0.00220308
0.0313614
-0.00203666
0.031173
-0.0018694
0.0310065
-0.00170326
0.0308603
-0.00153973
0.0307329
-0.00137984
0.0306227
-0.00122428
0.0305284
-0.00107291
0.0304485
-0.000929571
-0.000765137
0.0351206
-0.00269428
-0.0355515
0.0346951
-0.0027373
0.0342815
-0.00274025
0.0338849
-0.00270987
0.0335084
-0.00265287
0.0331541
-0.002574
0.0328233
-0.00247695
0.0325166
-0.00236499
0.0322343
-0.00224107
0.031976
-0.002108
0.0317413
-0.00196842
0.0315295
-0.00182481
0.0313394
-0.00167936
0.0311701
-0.00153389
0.0310201
-0.0013898
0.0308884
-0.00124812
0.0307737
-0.00110955
0.0306748
-0.000974045
0.0305905
-0.000845293
-0.000696593
0.0350835
-0.00230409
-0.0354736
0.0346948
-0.00234862
0.0343137
-0.00235916
0.0339449
-0.00234106
0.0335916
-0.00229962
0.0332562
-0.00223862
0.0329403
-0.00216105
0.032645
-0.00206962
0.0323707
-0.00196684
0.0321179
-0.00185513
0.0318863
-0.00173682
0.0316756
-0.0016141
0.0314851
-0.00148891
0.0313141
-0.00136291
0.0311617
-0.00123739
0.0310269
-0.00111333
0.0309088
-0.000991414
0.0308064
-0.000871679
0.0307187
-0.000757551
-0.00062494
0.0350439
-0.00194799
-0.0354
0.0346865
-0.00199125
0.0343334
-0.00200604
0.0339889
-0.00199658
0.0336564
-0.00196704
0.0333381
-0.00192037
0.033036
-0.00185896
0.0327514
-0.00178503
0.0324853
-0.00170068
0.0322381
-0.00160795
0.0320101
-0.00150884
0.0318013
-0.00140526
0.0316113
-0.00129891
0.0314396
-0.00119125
0.0312857
-0.00108347
0.0311488
-0.000976427
0.0310282
-0.000870808
0.0309232
-0.000766667
0.0308327
-0.000667131
-0.00055085
0.0350047
-0.00162017
-0.0353325
0.0346736
-0.00166017
0.0343442
-0.00167669
0.0340207
-0.00167307
0.0337062
-0.00165252
0.0334031
-0.00161732
0.0331135
-0.00156935
0.0328389
-0.00151039
0.0325804
-0.00144216
0.0323388
-0.00136635
0.0321146
-0.00128465
0.031908
-0.00119868
0.031719
-0.0011099
0.0315473
-0.00101958
0.0313926
-0.000928732
0.0312543
-0.000838155
0.0311319
-0.000748452
0.031025
-0.000659705
0.0309325
-0.000574678
-0.000474883
0.0349677
-0.00131552
-0.0352724
0.0346584
-0.00135084
0.0343489
-0.00136724
0.0340431
-0.00136728
0.0337441
-0.00135344
0.0334542
-0.00132743
0.0331755
-0.0012907
0.0329097
-0.00124462
0.0326582
-0.00119059
0.0324218
-0.00112997
0.0322013
-0.00106415
0.0319971
-0.00099448
0.0318094
-0.000922169
0.0316381
-0.00084828
0.031483
-0.000773682
0.0313439
-0.000699046
0.0312204
-0.000624902
0.031112
-0.000551339
0.031018
-0.000480716
-0.000397499
0.0349345
-0.00102953
-0.0352205
0.0346429
-0.0010592
0.0343497
-0.00107409
0.0340586
-0.00107616
0.0337724
-0.00106725
0.0334936
-0.00104861
0.0332242
-0.00102133
0.0329661
-0.000986454
0.0327205
-0.000945051
0.0324888
-0.000898206
0.0322716
-0.000847016
0.0320697
-0.000792549
0.0318833
-0.000735784
0.0317126
-0.000677575
0.0315575
-0.000618622
0.031418
-0.000559475
0.0312936
-0.00050057
0.0311843
-0.000441991
0.0310892
-0.000385657
-0.000319073
0.0349061
-0.000758219
-0.0351775
0.0346285
-0.000781602
0.0343484
-0.000793975
0.0340691
-0.000796797
0.0337932
-0.00079141
0.0335233
-0.000778718
0.0332615
-0.000759484
0.0330095
-0.000734472
0.0327689
-0.000704466
0.032541
-0.000670273
0.0323267
-0.000632715
0.0321267
-0.000592592
0.0319416
-0.000550641
0.0317715
-0.000507504
0.0316166
-0.000463711
0.0314768
-0.000419681
0.031352
-0.000375745
0.031242
-0.00033198
0.0311461
-0.000289823
-0.000239909
0.0348835
-0.000498145
-0.0351436
0.0346167
-0.000514771
0.0343465
-0.000523794
0.034076
-0.000526351
0.033808
-0.000523395
0.0335448
-0.000515543
0.0332887
-0.000503292
0.0330413
-0.000487144
0.0328045
-0.000467619
0.0325795
-0.000445255
0.0323673
-0.000420599
0.0321689
-0.000394187
0.0319848
-0.000366509
0.0318153
-0.000337994
0.0316606
-0.000308998
0.0315207
-0.000279802
0.0313956
-0.000250624
0.0312851
-0.00022154
0.0311888
-0.000193465
-0.00016026
0.034868
-0.000246329
-0.0351198
0.0346087
-0.000255514
0.0343453
-0.000260394
0.0340808
-0.000261842
0.0338179
-0.000260518
0.0335591
-0.000256755
0.0333066
-0.000250785
0.0330623
-0.000242852
0.0328279
-0.000233221
0.0326048
-0.000222159
0.0323942
-0.000209941
0.0321968
-0.000196832
0.0320134
-0.000183077
0.0318443
-0.000168891
0.0316897
-0.000154452
0.0315498
-0.000139902
0.0314246
-0.000125339
0.0313139
-0.000110846
0.0312171
-9.67164e-05
-8.04654e-05
0.0348615
-0.0351078
0.034606
0.0343456
0.0340838
0.0338232
0.0335665
0.0333157
0.0330729
0.0328396
0.0326175
0.0324075
0.0322107
0.0320276
0.0318587
0.0317043
0.0315644
0.031439
0.0313282
0.0312315
0.0331154
0.00300699
-0.032783
0.0334617
0.00513515
0.0338067
0.00719264
0.0341343
0.00915539
0.0344255
0.011004
0.03466
0.0127237
0.034813
0.014304
0.0348835
0.0157098
0.0348036
0.0170713
0.0177926
0.0324502
0.00270236
-0.0321455
0.0327924
0.0047929
0.0331628
0.00682229
0.0335486
0.0087695
0.0339359
0.0106168
0.0343109
0.0123486
0.0346526
0.0139624
0.0349654
0.015397
0.0351759
0.0168608
0.0176064
0.0318625
0.00243094
-0.0315911
0.0321928
0.00446262
0.0325728
0.00644222
0.032993
0.00834935
0.0334419
0.0101679
0.0339098
0.0118807
0.0343781
0.0134942
0.0348453
0.0149298
0.0352766
0.0164294
0.0172347
0.031355
0.00218945
-0.0311135
0.0316712
0.00414639
0.0320548
0.0060587
0.0324976
0.00790654
0.0329899
0.00967553
0.0335235
0.0113471
0.0340845
0.0129332
0.0346654
0.0143489
0.0352655
0.0158293
0.0166987
0.0309179
0.00197447
-0.0307029
0.0312208
0.00384343
0.031605
0.00567453
0.0320637
0.00744779
0.0325888
0.00915051
0.0331724
0.0107635
0.0338052
0.0123003
0.0344736
0.0136805
0.035193
0.0151099
0.0160249
0.0305394
0.00177885
-0.0303437
0.0308307
0.00355207
0.0312143
0.00529099
0.0316842
0.00697783
0.0322337
0.00860109
0.0328551
0.010142
0.0335423
0.0116131
0.0342785
0.0129443
0.0350847
0.0143037
0.0152381
0.0302107
0.00160036
-0.0300322
0.0304925
0.00327027
0.0308748
0.00490867
0.0313528
0.00649983
0.0319206
0.00803325
0.0325711
0.00949151
0.0332998
0.0108844
0.0340899
0.0121542
0.0349612
0.0134324
0.0143619
0.0299246
0.00143659
-0.0297608
0.0301984
0.00299648
0.0305794
0.00452759
0.0310635
0.00601575
0.0316456
0.00745119
0.0323188
0.00881828
0.0330796
0.0101237
0.0339125
0.0113214
0.0348335
0.0125114
0.0134155
0.0296752
0.00128491
-0.0295236
0.0299424
0.00272931
0.0303224
0.00414761
0.0308112
0.00552689
0.0314045
0.00685796
0.0320957
0.00812706
0.0328814
0.00933793
0.0337482
0.0104547
0.0347076
0.011552
0.0124143
0.0294581
0.00114307
-0.0293163
0.0297198
0.0024676
0.0300988
0.00376858
0.0305915
0.00503422
0.0311936
0.00625585
0.0318992
0.00742151
0.0327045
0.00853257
0.0335979
0.00956127
0.0345872
0.0105627
0.0113705
0.0292695
0.00100933
-0.0291358
0.0295267
0.00221038
0.029905
0.00339032
0.0304008
0.00453845
0.03101
0.00564664
0.031727
0.00670451
0.0325478
0.00771173
0.0334622
0.00864689
0.0344747
0.0095502
0.0102936
0.0291066
0.000882269
-0.0289796
0.0293601
0.00195686
0.0297378
0.00301271
0.0302361
0.00404015
0.030851
0.00503168
0.0315772
0.00597833
0.0324103
0.00687865
0.0333411
0.00771609
0.0343715
0.00851978
0.00919145
0.0289671
0.000760748
-0.0288455
0.0292175
0.0017064
0.0295946
0.0026356
0.030095
0.00353977
0.0307146
0.00441205
0.0314482
0.0052448
0.0322909
0.00603588
0.0332345
0.00677251
0.0342787
0.00747561
0.00807014
0.0288489
0.00064381
-0.0287319
0.0290968
0.00145844
0.0294736
0.00225887
0.0299757
0.00303763
0.0305991
0.00378864
0.0313385
0.00450538
0.0321889
0.00518547
0.0331424
0.00581908
0.0341969
0.00642106
0.00693458
0.0287504
0.000530655
-0.0286373
0.0289964
0.0012125
0.0293728
0.00188241
0.0298764
0.00253404
0.0305029
0.00316212
0.031247
0.00376127
0.0321034
0.00432911
0.0330643
0.00485816
0.0341265
0.00535886
0.00578875
0.0286704
0.000420607
-0.0285604
0.0289147
0.000968187
0.029291
0.00150611
0.0297959
0.00202919
0.0304249
0.00253308
0.0311727
0.00301346
0.0320336
0.00346819
0.0330001
0.00389172
0.0340677
0.00429126
0.00463592
0.0286076
0.000313074
-0.0285001
0.0288507
0.000725141
0.0292269
0.00112987
0.0297328
0.00152328
0.0303639
0.00190201
0.0311146
0.00226279
0.0319789
0.0026039
0.0329492
0.00292141
0.0340203
0.00322016
0.00347874
0.0285611
0.000207489
-0.0284555
0.0288032
0.000483017
0.0291795
0.000753559
0.0296864
0.00101642
0.0303191
0.0012693
0.0310719
0.00150999
0.0319385
0.00173729
0.0329113
0.00194867
0.0339842
0.00214721
0.00231937
0.0285297
0.00010345
-0.0284257
0.0287714
0.000241407
0.0291479
0.000376968
0.0296557
0.000508624
0.0302898
0.000635205
0.0310442
0.000755591
0.0319124
0.000869159
0.0328864
0.000974639
0.0339599
0.00107366
0.00115953
0.0285131
-0.0284096
0.0287545
0.0291314
0.0296401
0.0302753
0.0310309
0.0319
0.0328747
0.0339483
0.0155499
0.0242157
-0.0225175
-0.017248
0.013693
0.0247772
-0.0229203
0.011779
0.0254712
-0.0235572
0.00980867
0.0262653
-0.024295
0.00778861
0.027108
-0.025088
0.00574909
0.0278782
-0.0258387
0.00376017
0.0282111
-0.0262222
0.00196115
0.027207
-0.025408
0.000591581
0.0229714
-0.0216018
0.011984
-0.0113924
0.013915
0.025917
-0.0156163
0.0121959
0.0264962
0.0104412
0.0272259
0.00864135
0.0280652
0.00679846
0.0289509
0.0049454
0.0297313
0.00316058
0.0299959
0.00158734
0.0287802
0.000444581
0.0241141
0.0124285
0.012273
0.0274658
-0.0138218
0.0106849
0.0280843
0.00906831
0.0288425
0.00742196
0.0297115
0.00575119
0.0306217
0.00409128
0.0313912
0.00252504
0.0315622
0.00119516
0.0301101
0.00029287
0.0250164
0.0127214
0.0105272
0.0288633
-0.0119247
0.00908943
0.0295221
0.00762602
0.0303059
0.00614308
0.0311945
0.00465321
0.0321116
0.00319761
0.0328468
0.00186364
0.0328961
0.000791836
0.0311819
0.000140069
0.0256682
0.0128615
0.00867777
0.0301002
-0.00991472
0.00740598
0.0307939
0.00611208
0.0315998
0.00480687
0.0324997
0.00351111
0.0334073
0.00227363
0.0340843
0.00118494
0.0339848
0.000380128
0.0319867
-6.43265e-06
0.0260548
0.0128551
0.00674128
0.0311621
-0.00780315
0.00564939
0.0318858
0.00453884
0.0327104
0.003425
0.0336135
0.00233652
0.0344958
0.00133017
0.0350906
0.00049952
0.0348155
-4.55203e-05
0.0325317
-0.000157726
0.026167
0.0126973
0.00474035
0.0320381
-0.00561633
0.00383837
0.0327878
0.00292265
0.0336261
0.00201301
0.0345232
0.00114566
0.0353632
0.000382041
0.0358542
-0.000179523
0.035377
-0.000406753
0.032759
-0.000284626
0.0260448
0.0124127
0.00269926
0.0327214
-0.00338255
0.00199458
0.0334925
0.00128368
0.034337
0.000589756
0.0352171
-4.61039e-05
0.035999
-0.000548771
0.0363569
-0.000819915
0.0356482
-0.000770102
0.0327092
-0.000403912
0.0256786
0.0120088
0.000639556
0.0332154
-0.00113362
0.000142167
0.0339899
-0.000354218
0.0348334
-0.000824453
0.0356873
-0.00121513
0.0363897
-0.00145215
0.0365939
-0.00144084
0.0356369
-0.00110849
0.0323768
-0.000510356
0.0250805
0.0114984
-0.00140744
0.00113551
-0.00169547
-0.00197522
-0.0022119
-0.00235174
-0.00231688
-0.00202005
-0.00141367
-0.000600959
0.0225386
0.00233044
-0.024869
0.0201329
0.00240569
0.0176435
0.00248937
0.0150613
0.0025822
0.0123761
0.00268522
0.0095846
0.0027915
0.00671259
0.00287201
0.00387056
0.00284203
0.00137659
0.00249397
0.00137659
0.0224279
0.00465501
-0.0247524
0.0200289
0.00480467
0.0175473
0.00497095
0.014974
0.00515554
0.0122989
0.0053603
0.00951914
0.00557126
0.00666058
0.00573057
0.00383496
0.00566765
0.00136406
0.00496486
0.00274065
0.0222045
0.00696708
-0.0245166
0.0198192
0.00718994
0.0173533
0.00743686
0.0147977
0.00771112
0.0121429
0.00801512
0.00938693
0.00832726
0.00655735
0.00856016
0.00376721
0.00845779
0.00133454
0.00739753
0.0040752
0.0218658
0.00925949
-0.0241582
0.0195018
0.00955392
0.0170598
0.00987878
0.0145313
0.0102397
0.0119073
0.0106391
0.00918747
0.0110471
0.00640158
0.011346
0.00366461
0.0111948
0.00129097
0.00977117
0.00536617
0.0214086
0.0115246
-0.0236737
0.0190738
0.0118887
0.0166644
0.0122882
0.0141724
0.0127316
0.0115902
0.0132213
0.00891922
0.0137181
0.00619237
0.0140729
0.0035271
0.01386
0.00123296
0.0120653
0.00659913
0.0208299
0.0137551
-0.0230603
0.0185316
0.014187
0.0161632
0.0146565
0.0137179
0.015177
0.0111889
0.0157503
0.00858024
0.0163268
0.00592855
0.0167246
0.00335421
0.0164344
0.0011604
0.0142591
0.00775953
0.0201296
0.0159455
-0.02232
0.0178739
0.0164427
0.0155544
0.016976
0.0131654
0.017566
0.0107012
0.0182144
0.00816877
0.0188593
0.00560906
0.0192843
0.00314562
0.0188978
0.00107337
0.0163314
0.0088329
0.0193024
0.0180993
-0.0214562
0.0170873
0.0186578
0.0148262
0.0192371
0.0125065
0.0198857
0.0101215
0.0205994
0.00768148
0.0212992
0.00523245
0.0217333
0.0029011
0.0212291
0.000972133
0.0182603
0.00980504
0.0183423
0.020245
-0.020488
0.0161746
0.0208254
0.0139835
0.0214282
0.0117418
0.0221274
0.00944812
0.0228931
0.00711704
0.0236303
0.00479833
0.024052
0.00262112
0.0234064
0.000857284
0.0200242
0.0106623
0.017274
-0.0195465
0.0151791
0.0130502
0.0108826
0.00868779
0.00647942
0.00430928
0.00230769
0.000730064
0.0285999
-0.00012854
0.0287258
-0.00012594
0.0288441
-0.000118234
0.028951
-0.000106962
0.0290431
-9.20828e-05
0.0291166
-7.34521e-05
0.0291675
-5.09428e-05
0.0291922
-2.46838e-05
0.0291861
6.05847e-06
0.0291375
4.86261e-05
0.0290433
9.42258e-05
0.0288981
0.000145206
0.0286955
0.000202529
0.0284284
0.00026718
0.028088
0.00034038
0.0276643
0.000423653
0.0271455
0.000518867
0.0265172
0.000628205
0.0257634
0.000753839
0.000894387
0.0286495
-0.000249355
0.0287672
-0.000243699
0.028877
-0.000228028
0.0289754
-0.000205359
0.0290589
-0.000175518
0.0291236
-0.000138211
0.029166
-9.32859e-05
0.0291824
-4.11526e-05
0.0291652
2.32655e-05
0.0291066
0.000107231
0.0290025
0.000198319
0.0288476
0.000300133
0.0286356
0.000414563
0.0283592
0.000543579
0.0280099
0.000689624
0.0275778
0.000855746
0.027051
0.00104568
0.0264154
0.00126384
0.0256545
0.00151468
0.00179648
0.0287473
-0.000353348
0.028848
-0.000344388
0.0289406
-0.0003207
0.0290218
-0.000286552
0.029088
-0.000241672
0.0291354
-0.000185595
0.0291602
-0.000118115
0.0291593
-4.02303e-05
0.0291202
6.23216e-05
0.0290415
0.000185951
0.0289178
0.000322055
0.0287435
0.000474373
0.0285126
0.000645512
0.0282178
0.000838381
0.0278508
0.00105662
0.0274017
0.00130478
0.0268589
0.00158848
0.0262084
0.00191438
0.0254338
0.00228929
0.00271369
0.0288893
-0.000431761
0.0289639
-0.000419037
0.0290304
-0.000387203
0.0290852
-0.000341318
0.0291246
-0.000281021
0.0291448
-0.000205876
0.0291428
-0.000116047
0.0291176
-1.50589e-05
0.0290463
0.000133635
0.0289369
0.000295337
0.0287833
0.000475691
0.0285797
0.000677948
0.0283201
0.000905119
0.0279975
0.00116101
0.0276037
0.00145042
0.0271291
0.00177935
0.0265623
0.00215524
0.0258897
0.00258701
0.0250957
0.00308334
0.00365118
0.0290702
-0.000475351
0.0291094
-0.00045831
0.0291406
-0.000418397
0.0291603
-0.00036096
0.0291649
-0.00028565
0.029151
-0.000191961
0.0291154
-8.04304e-05
0.0290396
6.06617e-05
0.0289299
0.000243361
0.0287816
0.000443702
0.0285891
0.000668136
0.0283472
0.000919889
0.0280498
0.00120251
0.0276902
0.00152055
0.0272608
0.00187988
0.0267522
0.00228788
0.0261538
0.00275364
0.0254525
0.00328838
0.0246346
0.00390118
0.00461209
0.0292845
-0.000474478
0.0292789
-0.000452671
0.0292651
-0.00040464
0.0292394
-0.000335184
0.0291978
-0.000244101
0.0291364
-0.000130556
0.0290607
-4.67833e-06
0.0289292
0.000192083
0.0287694
0.000403231
0.0285714
0.000641709
0.0283297
0.000909767
0.0280393
0.00121033
0.0276944
0.00154744
0.0272886
0.00192635
0.0268146
0.00235384
0.026264
0.00283849
0.0256269
0.00339076
0.0248909
0.00402433
0.0240463
0.00474582
0.00559805
0.0295243
-0.000418535
0.0294631
-0.000391418
0.0293946
-0.000336112
0.0293144
-0.000255014
0.0292197
-0.000149399
0.0291159
-2.67255e-05
0.0289506
0.000160586
0.0287675
0.000375172
0.0285507
0.00062006
0.0282949
0.000897517
0.0279954
0.00120929
0.0276473
0.00155841
0.0272455
0.00194923
0.0267843
0.00238757
0.0262571
0.00288097
0.0256567
0.00343895
0.0249747
0.00407272
0.0242002
0.00479879
0.023329
0.00561709
0.006607
0.0297902
-0.000297532
0.0296644
-0.000265575
0.0295303
-0.000202084
0.0293862
-0.000110869
0.0292387
-1.93524e-06
0.0290328
0.000179218
0.02881
0.000383398
0.0285596
0.000625522
0.0282749
0.000904746
0.0279514
0.00122103
0.0275847
0.00157602
0.0271704
0.00197273
0.0267039
0.00241567
0.0261804
0.00291108
0.0255944
0.00346702
0.0249396
0.00409372
0.0242096
0.00480276
0.0233944
0.00561399
0.0224934
0.00651806
0.00764417
0.0300573
-9.95158e-05
0.0298565
-6.47981e-05
0.0296635
-9.03555e-06
0.0294437
0.000108901
0.0291839
0.000257853
0.0289163
0.000446789
0.0286216
0.000678185
0.0282952
0.000951869
0.0279333
0.00126667
0.0275317
0.0016226
0.0270866
0.0020211
0.0265942
0.00246514
0.0260505
0.00295938
0.0254514