/*--------------------------------*- C++ -*----------------------------------*\
| =========                 |                                                 |
| \\      /  F ield         | OpenFOAM: The Open Source CFD Toolbox           |
|  \\    /   O peration     | Version:  4.1                                   |
|   \\  /    A nd           | Web:      www.OpenFOAM.org                      |
|    \\/     M anipulation  |                                                 |
\*---------------------------------------------------------------------------*/
FoamFile
{
    version     2.0;
    format      ascii;
    class       volScalarField;
    location    "8.9";
    object      p;
}
// * * * * * * * * * * * * * * * * * * * * * * * * * * * * * * * * * * * * * //

dimensions      [0 2 -2 0 0 0 0];

internalField   nonuniform List<scalar> 
2000
(
-0.256141
-0.245547
-0.234949
-0.225309
-0.217566
-0.211477
-0.205919
-0.201438
-0.19493
-0.193211
-0.277564
-0.263111
-0.249937
-0.238067
-0.227722
-0.218292
-0.209041
-0.199741
-0.189493
-0.181211
-0.304513
-0.28532
-0.269174
-0.254406
-0.240086
-0.225719
-0.211123
-0.196534
-0.181748
-0.167821
-0.337221
-0.312413
-0.29276
-0.273678
-0.253294
-0.232152
-0.21115
-0.190986
-0.171521
-0.154533
-0.37544
-0.343991
-0.319912
-0.294097
-0.265188
-0.235762
-0.207763
-0.181922
-0.158429
-0.137972
-0.417217
-0.378736
-0.34824
-0.312594
-0.273071
-0.234556
-0.199466
-0.168304
-0.140883
-0.117162
-0.45923
-0.414171
-0.373783
-0.325366
-0.274171
-0.226621
-0.18487
-0.148792
-0.11774
-0.090746
-0.496526
-0.446027
-0.391987
-0.328849
-0.266075
-0.210258
-0.162599
-0.122213
-0.087776
-0.057702
-0.523781
-0.468492
-0.39853
-0.320226
-0.246861
-0.183957
-0.131388
-0.0874419
-0.0501405
-0.0175959
-0.536337
-0.475913
-0.389476
-0.297327
-0.215068
-0.146507
-0.0901382
-0.0435139
-0.0041137
0.0299088
-0.162528
-0.169162
-0.172673
-0.176114
-0.179945
-0.183927
-0.187863
-0.191629
-0.195249
-0.198952
-0.166057
-0.172136
-0.17542
-0.178777
-0.182564
-0.186516
-0.190416
-0.194081
-0.19748
-0.201172
-0.172509
-0.177484
-0.180325
-0.183422
-0.187005
-0.190777
-0.194492
-0.197893
-0.200786
-0.20411
-0.180793
-0.184298
-0.186402
-0.188938
-0.192025
-0.195336
-0.198593
-0.201527
-0.203662
-0.205413
-0.189816
-0.191679
-0.192703
-0.194288
-0.196502
-0.199021
-0.201511
-0.203745
-0.204981
-0.20448
-0.198821
-0.199022
-0.198614
-0.198823
-0.199783
-0.201236
-0.202787
-0.204136
-0.204722
-0.200814
-0.207606
-0.206131
-0.20404
-0.202485
-0.201862
-0.202064
-0.20261
-0.202976
-0.204172
-0.195522
-0.216614
-0.213403
-0.209392
-0.205829
-0.20345
-0.202309
-0.201936
-0.201155
-0.203594
-0.191863
-0.226842
-0.221666
-0.215585
-0.209975
-0.205802
-0.203347
-0.201968
-0.20034
-0.202174
-0.191881
-0.239582
-0.232021
-0.223749
-0.216072
-0.210266
-0.206315
-0.203291
-0.201056
-0.199589
-0.19539
-0.202826
-0.206204
-0.209271
-0.211881
-0.21386
-0.215014
-0.215119
-0.213919
-0.211128
-0.206422
-0.199442
-0.189815
-0.17724
-0.161646
-0.142867
-0.120934
-0.0955711
-0.0657906
-0.0323982
-0.00571611
-0.205987
-0.209499
-0.212708
-0.215533
-0.217772
-0.219225
-0.219669
-0.218842
-0.216452
-0.212168
-0.205626
-0.196447
-0.184294
-0.169063
-0.150492
-0.128502
-0.102905
-0.072985
-0.0390465
-0.00882125
-0.210705
-0.214414
-0.217848
-0.221049
-0.223727
-0.225687
-0.226706
-0.226508
-0.224784
-0.221187
-0.215338
-0.206839
-0.195349
-0.180619
-0.162356
-0.140314
-0.114301
-0.0839428
-0.0491071
-0.0134061
-0.215244
-0.218693
-0.222412
-0.226109
-0.229344
-0.231902
-0.233566
-0.234078
-0.233092
-0.230232
-0.225084
-0.217226
-0.206381
-0.192079
-0.174077
-0.151994
-0.125553
-0.0946649
-0.0593398
-0.0162499
-0.216487
-0.221412
-0.225114
-0.229114
-0.232946
-0.236163
-0.238479
-0.239643
-0.239337
-0.237115
-0.232501
-0.225044
-0.214715
-0.200718
-0.182783
-0.160499
-0.133512
-0.101472
-0.0642005
-0.0209596
-0.215559
-0.222383
-0.225905
-0.229823
-0.234087
-0.237902
-0.240782
-0.242467
-0.242659
-0.240919
-0.236727
-0.229922
-0.219594
-0.205618
-0.187566
-0.16496
-0.137487
-0.104671
-0.0667188
-0.0225168
-0.213037
-0.222143
-0.225328
-0.228672
-0.23307
-0.237276
-0.240506
-0.242486
-0.242882
-0.24146
-0.237637
-0.23072
-0.220477
-0.206461
-0.188238
-0.165357
-0.137619
-0.104502
-0.0665358
-0.0227073
-0.210342
-0.220991
-0.223493
-0.225974
-0.230274
-0.234536
-0.237738
-0.239717
-0.240219
-0.238632
-0.234593
-0.227633
-0.217291
-0.203133
-0.184783
-0.161855
-0.134212
-0.101501
-0.0642467
-0.022088
-0.208426
-0.217928
-0.218959
-0.220672
-0.224495
-0.228454
-0.231444
-0.233153
-0.233406
-0.23171
-0.227532
-0.220438
-0.209983
-0.195824
-0.177578
-0.155035
-0.128006
-0.0965064
-0.0607213
-0.0211221
-0.210611
-0.213706
-0.212883
-0.214346
-0.216935
-0.219381
-0.221254
-0.222269
-0.221988
-0.219881
-0.215432
-0.208274
-0.197923
-0.184121
-0.16644
-0.144896
-0.119177
-0.0897358
-0.0563359
-0.0200696
-0.192724
-0.19839
-0.203116
-0.205634
-0.207288
-0.208866
-0.210203
-0.210712
-0.209756
-0.206925
-0.20181
-0.194143
-0.183496
-0.169735
-0.15248
-0.131922
-0.107728
-0.080633
-0.0501872
-0.0179855
-0.184339
-0.192336
-0.194898
-0.195242
-0.195458
-0.196145
-0.196779
-0.196544
-0.194782
-0.191183
-0.185432
-0.17737
-0.166634
-0.153197
-0.136708
-0.117483
-0.0951673
-0.0706542
-0.0433959
-0.0153248
-0.167256
-0.178416
-0.182054
-0.181742
-0.18116
-0.181319
-0.181535
-0.180869
-0.178656
-0.174658
-0.168646
-0.160561
-0.150105
-0.137326
-0.121908
-0.104234
-0.0839633
-0.0620449
-0.0379285
-0.0135196
-0.149588
-0.163163
-0.167531
-0.167185
-0.166314
-0.166201
-0.166196
-0.165331
-0.162936
-0.158816
-0.152813
-0.144944
-0.134974
-0.123001
-0.108749
-0.0926318
-0.0743293
-0.0547769
-0.033408
-0.0119538
-0.131615
-0.145989
-0.151558
-0.151977
-0.151361
-0.151251
-0.151201
-0.150317
-0.147943
-0.143911
-0.138109
-0.130617
-0.121249
-0.110148
-0.0970705
-0.0824407
-0.0659563
-0.048504
-0.0295147
-0.0105712
-0.113321
-0.128277
-0.135137
-0.136643
-0.136591
-0.136686
-0.136728
-0.135956
-0.133754
-0.129965
-0.124509
-0.117505
-0.108814
-0.0986121
-0.0866839
-0.073453
-0.0586298
-0.0430476
-0.0261495
-0.00938662
-0.0955154
-0.110917
-0.118845
-0.12145
-0.12212
-0.122587
-0.122848
-0.122299
-0.120378
-0.116947
-0.111937
-0.105498
-0.0975275
-0.0882268
-0.0774043
-0.0654791
-0.0521701
-0.0382642
-0.0232149
-0.00836121
-0.0787339
-0.0942104
-0.10294
-0.106577
-0.108053
-0.109017
-0.109606
-0.109364
-0.107802
-0.104803
-0.100305
-0.0944783
-0.0872466
-0.0788329
-0.0690627
-0.0583525
-0.046424
-0.0340287
-0.0206228
-0.00746134
-0.0630111
-0.0782861
-0.0876208
-0.0922089
-0.0945163
-0.0960532
-0.0970438
-0.0971672
-0.0960142
-0.0934915
-0.0895435
-0.0843525
-0.0778596
-0.0703065
-0.0615305
-0.0519478
-0.0412789
-0.0302495
-0.0183132
-0.00666593
-0.0483176
-0.0632806
-0.0730809
-0.0785223
-0.0816379
-0.0837761
-0.0852117
-0.0857376
-0.08502
-0.0829954
-0.0796121
-0.0750606
-0.0692918
-0.0625633
-0.0547194
-0.046179
-0.0366579
-0.026865
-0.0162471
-0.00595994
-0.0347404
-0.0493382
-0.0594787
-0.065662
-0.0695343
-0.0722723
-0.074171
-0.075116
-0.0748425
-0.0733188
-0.0704965
-0.0665715
-0.0614992
-0.05555
-0.0485724
-0.0409893
-0.0325103
-0.0238343
-0.0143985
-0.00533255
-0.0223784
-0.0365578
-0.0469247
-0.0537461
-0.058314
-0.0616298
-0.0639891
-0.0653522
-0.0655163
-0.0644806
-0.0622002
-0.0588745
-0.0544594
-0.0492362
-0.0430546
-0.0363431
-0.028804
-0.0211313
-0.0127509
-0.00477648
-0.0113036
-0.0250163
-0.0355165
-0.0428798
-0.0480761
-0.0519339
-0.0547349
-0.0565004
-0.0570821
-0.0565087
-0.0547382
-0.0519725
-0.0481655
-0.0436073
-0.0381471
-0.0322198
-0.0255198
-0.0187397
-0.0112939
-0.00428703
-0.00153121
-0.0147741
-0.0253401
-0.0331578
-0.0389115
-0.0432645
-0.0464758
-0.0486158
-0.0495838
-0.049436
-0.0481326
-0.0458774
-0.0426207
-0.0386598
-0.0338421
-0.028609
-0.0226472
-0.0166506
-0.0100217
-0.00386124
0.00691117
-0.005884
-0.0164699
-0.0246633
-0.0309009
-0.0356942
-0.0392742
-0.0417509
-0.0430649
-0.0432967
-0.0424089
-0.0406061
-0.0378345
-0.0343969
-0.0301385
-0.025507
-0.0201819
-0.0148594
-0.00893136
-0.00349737
0.0139976
0.00160788
-0.00896955
-0.0174678
-0.0241139
-0.0292854
-0.0331844
-0.0359525
-0.0375649
-0.0381234
-0.0375923
-0.0361769
-0.0338188
-0.0308254
-0.0270394
-0.0229141
-0.0181227
-0.0133644
-0.00802162
-0.00319451
0.0197034
0.00765949
-0.00289571
-0.011634
-0.0186111
-0.024092
-0.0282534
-0.0312612
-0.0331187
-0.0339452
-0.0337062
-0.0326075
-0.0305862
-0.0279535
-0.0245497
-0.0208328
-0.0164707
-0.0121658
-0.0072923
-0.00295221
0.0240097
0.0122347
0.00170007
-0.00722003
-0.0144482
-0.0201638
-0.024524
-0.027714
-0.0297581
-0.0307889
-0.0307727
-0.0299149
-0.0281497
-0.0257904
-0.0226756
-0.019267
-0.0152286
-0.0112651
-0.00674452
-0.00277049
0.0269459
0.0153419
0.00480096
-0.00425467
-0.0116563
-0.0175301
-0.0220238
-0.0253358
-0.0275055
-0.0286737
-0.0288078
-0.0281122
-0.0265195
-0.0243434
-0.021423
-0.0182199
-0.0143993
-0.0106626
-0.00638093
-0.00264788
0.028668
0.0170459
0.00642785
-0.00272802
-0.0102313
-0.0161919
-0.0207577
-0.0241332
-0.0263689
-0.0276067
-0.0278195
-0.0272045
-0.0257021
-0.0236148
-0.0207972
-0.0176911
-0.013988
-0.0103541
-0.00620631
-0.00257623
0.0572251
0.00964692
-0.0315058
-0.0663728
-0.0951683
-0.118634
-0.137786
-0.154285
-0.167763
-0.189266
0.0798114
0.0334316
-0.00699181
-0.042036
-0.0716298
-0.0972925
-0.118084
-0.138845
-0.152886
-0.175529
0.100071
0.0554258
0.0164428
-0.018169
-0.0475686
-0.0746584
-0.0959838
-0.118681
-0.132555
-0.15336
0.118144
0.0752091
0.0376087
0.00345095
-0.0254847
-0.0530378
-0.0742276
-0.0967361
-0.111534
-0.132054
0.134223
0.0927981
0.056359
0.0227122
-0.0057567
-0.0331125
-0.0543819
-0.0766186
-0.093197
-0.113574
0.148515
0.108478
0.0730689
0.0400898
0.0120315
-0.0149116
-0.0366034
-0.0587255
-0.0762053
-0.0957397
0.161256
0.12254
0.0880862
0.0558837
0.0281872
0.00172629
-0.0202077
-0.0418764
-0.0593012
-0.0781431
0.172655
0.13519
0.101628
0.0702329
0.0429214
0.017042
-0.00475982
-0.0258275
-0.043081
-0.0615964
0.182874
0.14657
0.113842
0.0832441
0.0563805
0.0311226
0.00960295
-0.0110161
-0.0281972
-0.0463407
0.192032
0.156785
0.12484
0.0950057
0.0686213
0.0439338
0.0226866
0.00242628
-0.0146121
-0.0322002
0.200217
0.165924
0.134706
0.105581
0.0796656
0.0554883
0.0345124
0.0146484
-0.00216013
-0.0191472
0.207493
0.174052
0.1435
0.115024
0.089552
0.0658559
0.0451662
0.0257285
0.00914488
-0.00729616
0.2139
0.181219
0.151266
0.123381
0.0983242
0.0750877
0.0546735
0.0356368
0.0192349
0.00328219
0.219464
0.187456
0.158039
0.130689
0.10601
0.0831983
0.0630261
0.0443444
0.0280933
0.0125807
0.224198
0.192785
0.16384
0.136968
0.112625
0.0901909
0.0702246
0.0518519
0.0357278
0.0205939
0.228108
0.197217
0.168683
0.14223
0.118178
0.0960716
0.0762787
0.0581658
0.0421403
0.0273089
0.231196
0.200757
0.172578
0.146484
0.12268
0.100849
0.0811978
0.0632891
0.0473273
0.0327127
0.233474
0.203418
0.175545
0.149751
0.126155
0.104545
0.0850026
0.0672385
0.0513021
0.0368086
0.234922
0.205187
0.177574
0.152033
0.128618
0.107184
0.0877285
0.070061
0.0541252
0.0396666
0.235474
0.20596
0.178527
0.153175
0.129906
0.108609
0.0892313
0.0716377
0.0557193
0.0412933
0.77581
0.778892
0.772276
0.756646
0.732938
0.700327
0.654951
0.590361
0.504773
0.44447
0.708414
0.705282
0.687378
0.662035
0.630224
0.5889
0.532844
0.455287
0.354649
0.282513
0.636698
0.625261
0.598079
0.564796
0.525403
0.475405
0.408983
0.319401
0.205154
0.12328
0.554532
0.536812
0.504147
0.465486
0.419805
0.361989
0.286283
0.186421
0.0604081
-0.0276578
0.467944
0.445286
0.408901
0.366273
0.315456
0.251033
0.167484
0.0597873
-0.0756054
-0.163424
0.382395
0.355241
0.315907
0.270132
0.215196
0.145512
0.055631
-0.058032
-0.194356
-0.281334
0.300385
0.269253
0.227785
0.17976
0.121919
0.0486028
-0.0452501
-0.161919
-0.293788
-0.378537
0.223237
0.188985
0.146469
0.097252
0.0379714
-0.0372436
-0.132236
-0.248047
-0.372845
-0.45281
0.151848
0.115763
0.0736968
0.0244754
-0.0355543
-0.110399
-0.203631
-0.314971
-0.429807
-0.503248
0.0858219
0.0510928
0.010226
-0.038182
-0.0971333
-0.169732
-0.258686
-0.362066
-0.463885
-0.530455
1.18186
1.20123
1.22305
1.24737
1.27412
1.30302
1.33323
1.36239
1.38755
1.41562
1.17679
1.19506
1.21602
1.23942
1.26504
1.29254
1.32103
1.34809
1.37071
1.39692
1.16631
1.18238
1.20165
1.22327
1.24665
1.27136
1.29644
1.31927
1.33703
1.35929
1.14978
1.16263
1.17944
1.19843
1.21853
1.23917
1.25922
1.27583
1.28643
1.30283
1.1264
1.13508
1.14875
1.16439
1.18026
1.19561
1.20913
1.21766
1.2189
1.2277
1.0953
1.09889
1.10881
1.12046
1.13129
1.14032
1.146
1.14479
1.13465
1.13433
1.0558
1.05365
1.05943
1.0666
1.07161
1.07331
1.06998
1.05758
1.03423
1.02356
1.00626
0.997767
0.999668
1.00238
1.00115
0.994838
0.981589
0.956877
0.918827
0.896774
0.946744
0.932206
0.930953
0.928699
0.920395
0.905426
0.881697
0.843984
0.790331
0.755879
0.869597
0.856437
0.85477
0.847049
0.83091
0.806818
0.772163
0.720974
0.651262
0.603812
1.00229
1.00686
1.01211
1.01784
1.0237
1.02963
1.03573
1.04209
1.0488
1.0559
1.06347
1.07152
1.08013
1.08939
1.09941
1.11029
1.12214
1.13509
1.14926
1.16478
1.00226
1.00686
1.01209
1.01774
1.02351
1.02936
1.03538
1.04166
1.04827
1.05526
1.0627
1.07059
1.07902
1.08807
1.09785
1.10843
1.11993
1.13244
1.14608
1.16092
1.00227
1.00686
1.01197
1.01746
1.02307
1.02877
1.03464
1.04075
1.04717
1.05394
1.06109
1.06866
1.07671
1.08534
1.0946
1.10457
1.11532
1.12694
1.13945
1.15286
1.00227
1.00679
1.01171
1.01697
1.02235
1.02782
1.03343
1.03926
1.04536
1.05179
1.0585
1.06556
1.07303
1.08096
1.08941
1.0984
1.10797
1.11815
1.12885
1.14
1.00223
1.00664
1.0113
1.01623
1.02129
1.02643
1.0317
1.03716
1.04283
1.0487
1.05476
1.06109
1.06773
1.07469
1.08196
1.08954
1.09741
1.10551
1.11364
1.12152
1.00215
1.00639
1.0107
1.01519
1.01981
1.0245
1.02929
1.0342
1.03935
1.04446
1.04967
1.05505
1.06058
1.06622
1.07191
1.07759
1.08316
1.08843
1.0931
1.09653
1.00199
1.00596
1.00985
1.0138
1.01787
1.02202
1.02624
1.03062
1.03477
1.03891
1.0431
1.04728
1.05139
1.05531
1.05896
1.06214
1.0647
1.06622
1.06643
1.0641
1.00176
1.00531
1.00867
1.01198
1.0154
1.01899
1.02252
1.02577
1.02893
1.03202
1.03497
1.03766
1.03999
1.04179
1.04292
1.043
1.04188
1.03866
1.03324
1.02339
1.00135
1.00426
1.00708
1.00982
1.01256
1.01518
1.01766
1.01996
1.02206
1.02386
1.0253
1.02617
1.02635
1.02549
1.02351
1.01972
1.01427
1.00548
0.994097
0.974846
1.00112
1.00304
1.00493
1.00691
1.00882
1.01055
1.01204
1.01321
1.01399
1.01426
1.01391
1.01267
1.01043
1.00658
1.00114
0.9926
0.981556
0.964128
0.943517
0.909019
1.00048
1.0016
1.00275
1.00391
1.00493
1.00564
1.00595
1.0058
1.00509
1.00365
1.00134
0.997778
0.992837
0.985711
0.976361
0.962965
0.945924
0.920466
0.887706
0.832985
1.00012
1.00022
1.00047
1.00083
1.00096
1.00062
0.999745
0.99826
0.996097
0.993017
0.988897
0.983281
0.976059
0.966334
0.954117
0.937545
0.917014
0.888696
0.854376
0.80873
0.999871
0.998849
0.998132
0.99768
0.996903
0.995486
0.993403
0.990592
0.987001
0.982361
0.976554
0.969092
0.959895
0.948065
0.933674
0.915039
0.892733
0.863895
0.830576
0.788394
0.999241
0.997532
0.99614
0.99482
0.993011
0.990431
0.987091
0.982942
0.977936
0.971786
0.964378
0.955214
0.944251
0.930621
0.914488
0.894328
0.870925
0.841707
0.808933
0.768055
0.998754
0.996406
0.994463
0.992286
0.989367
0.985544
0.980904
0.975411
0.969018
0.961418
0.952506
0.941785
0.929259
0.914095
0.896557
0.875215
0.851016
0.821473
0.789098
0.74949
0.99829
0.995347
0.993045
0.990117
0.986059
0.980919
0.97493
0.968093
0.960353
0.951375
0.941065
0.928932
0.915029
0.898563
0.87988
0.857625
0.832843
0.803187
0.771271
0.733003
0.997674
0.994348
0.992061
0.988522
0.983265
0.976687
0.969273
0.961084
0.952041
0.941765
0.930159
0.916748
0.901629
0.884058
0.864432
0.841486
0.816301
0.78672
0.755286
0.718255
0.996988
0.993488
0.991671
0.987695
0.981142
0.972952
0.964002
0.954449
0.944155
0.932665
0.919862
0.905295
0.889098
0.870589
0.850186
0.826728
0.801275
0.77188
0.740904
0.70499
0.996183
0.992757
0.991971
0.987778
0.979797
0.96977
0.959152
0.948229
0.936749
0.924135
0.910228
0.894614
0.877461
0.858156
0.837112
0.81328
0.787654
0.758506
0.727961
0.693069
0.99534
0.992268
0.993132
0.988901
0.979262
0.967115
0.954704
0.942434
0.929855
0.916213
0.901292
0.884731
0.866731
0.846753
0.825182
0.801083
0.775351
0.746485
0.716348
0.6824
0.994581
0.992525
0.995693
0.991292
0.979487
0.964866
0.95058
0.937048
0.923486
0.908915
0.893066
0.875655
0.85691
0.836371
0.814368
0.790087
0.7643
0.735739
0.705984
0.672905
0.993889
0.994458
1.00056
0.995226
0.980352
0.962843
0.946691
0.932058
0.917649
0.902244
0.885548
0.867383
0.847997
0.827
0.804651
0.780255
0.754451
0.726204
0.696804
0.664519
0.9934
0.998551
1.00777
1.00034
0.981421
0.960777
0.942947
0.927455
0.912348
0.896195
0.878737
0.859921
0.839999
0.818638
0.796016
0.771558
0.745767
0.717833
0.688757
0.657192
0.993729
1.00383
1.01494
1.00443
0.981353
0.958081
0.939135
0.923131
0.90749
0.8907
0.872602
0.853269
0.832922
0.811286
0.788452
0.763977
0.738218
0.71059
0.681806
0.650886
0.994695
1.00772
1.01818
1.00429
0.978556
0.954176
0.935018
0.918861
0.902841
0.885593
0.867066
0.847398
0.826758
0.80493
0.781946
0.757489
0.731781
0.704445
0.67592
0.645571
0.992603
1.00418
1.01385
0.999261
0.973424
0.949848
0.931174
0.914851
0.898427
0.880891
0.86218
0.842368
0.821552
0.799601
0.776516
0.752102
0.72646
0.699388
0.671093
0.641227
0.985837
0.982498
0.987785
0.980692
0.964442
0.945955
0.928361
0.911417
0.894424
0.876749
0.858072
0.838267
0.817369
0.795347
0.772203
0.74784
0.722272
0.695421
0.667327
0.63784
0.997222
0.967478
0.94629
0.94668
0.948672
0.941014
0.925825
0.908428
0.890992
0.873339
0.854814
0.835099
0.814197
0.792159
0.768999
0.744688
0.719196
0.692516
0.664599
0.63539
0.999989
0.971945
0.946916
0.942924
0.943771
0.937099
0.923181
0.906408
0.889079
0.871342
0.852739
0.833004
0.812098
0.790063
0.7669
0.742623
0.717186
0.690622
0.662847
0.633848
0.987908
0.989563
0.991773
0.976212
0.954559
0.936224
0.920848
0.905439
0.888735
0.870809
0.851894
0.83202
0.811085
0.789048
0.76588
0.741612
0.716198
0.68969
0.662
0.633157
0.768169
0.697162
0.627575
0.551816
0.470991
0.390991
0.314504
0.241907
0.17384
0.111734
0.75882
0.685684
0.612588
0.541197
0.466305
0.391183
0.319583
0.251889
0.188885
0.131774
0.743051
0.673451
0.599884
0.532027
0.463479
0.393522
0.326157
0.262737
0.203891
0.149648
0.726238
0.661959
0.58994
0.524053
0.460464
0.395507
0.332043
0.272161
0.216682
0.165275
0.710252
0.650832
0.581621
0.517399
0.457576
0.397268
0.337572
0.280741
0.228128
0.179176
0.695487
0.640175
0.574414
0.512072
0.455075
0.398746
0.342623
0.288566
0.238386
0.191568
0.681966
0.630116
0.567974
0.507799
0.453053
0.399989
0.34714
0.295675
0.24761
0.202651
0.669663
0.620766
0.562148
0.504336
0.451531
0.401102
0.35114
0.302097
0.255924
0.212599
0.658535
0.612165
0.556849
0.501476
0.45045
0.402163
0.354672
0.307853
0.263409
0.221543
0.648523
0.604317
0.552025
0.499068
0.449728
0.403216
0.357802
0.312979
0.27012
0.229575
0.639568
0.597204
0.547639
0.497008
0.449281
0.404276
0.360585
0.317514
0.2761
0.236757
0.631618
0.590807
0.543666
0.495223
0.449034
0.405332
0.363066
0.3215
0.281383
0.243133
0.624633
0.585109
0.540091
0.493663
0.44892
0.406359
0.365267
0.324968
0.285995
0.248733
0.618581
0.580102
0.536909
0.492295
0.448885
0.407322
0.36719
0.327941
0.289956
0.253575
0.613444
0.575788
0.534127
0.491096
0.448878
0.408176
0.36882
0.330425
0.293277
0.25767
0.609223
0.572192
0.531764
0.490054
0.448853
0.40887
0.370131
0.332415
0.29596
0.261022
0.60593
0.569336
0.529832
0.489148
0.44876
0.409353
0.371092
0.333906
0.298008
0.26363
0.603551
0.567208
0.528301
0.488321
0.44852
0.409548
0.371657
0.334886
0.299436
0.265513
0.60206
0.565794
0.527151
0.48751
0.448024
0.409325
0.371703
0.335255
0.300178
0.26665
0.601455
0.565209
0.526589
0.486949
0.447468
0.408809
0.371278
0.334991
0.300123
0.266868
)
;

boundaryField
{
    bottom
    {
        type            symmetryPlane;
    }
    right
    {
        type            fixedValue;
        value           uniform 0;
    }
    top
    {
        type            symmetryPlane;
    }
    left
    {
        type            fixedValue;
        value           uniform 1;
    }
    cylinder
    {
        type            zeroGradient;
    }
    defaultFaces
    {
        type            empty;
    }
}


// ************************************************************************* //
