/*--------------------------------*- C++ -*----------------------------------*\
| =========                 |                                                 |
| \\      /  F ield         | OpenFOAM: The Open Source CFD Toolbox           |
|  \\    /   O peration     | Version:  4.1                                   |
|   \\  /    A nd           | Web:      www.OpenFOAM.org                      |
|    \\/     M anipulation  |                                                 |
\*---------------------------------------------------------------------------*/
FoamFile
{
    version     2.0;
    format      ascii;
    class       volVectorField;
    location    "8.9";
    object      U;
}
// * * * * * * * * * * * * * * * * * * * * * * * * * * * * * * * * * * * * * //

dimensions      [0 1 -1 0 0 0 0];

internalField   nonuniform List<vector> 
2000
(
(-0.0435431 0.0365601 3.14281e-20)
(-0.0284643 0.0473612 0)
(0.0748288 0.0366353 4.83001e-20)
(0.253156 0.0190826 2.12131e-20)
(0.488334 0.00421761 -3.95066e-20)
(0.751514 -0.0045631 -5.28021e-20)
(1.01417 -0.00576302 1.65178e-20)
(1.2464 -0.00653923 0)
(1.4622 0.00265241 -1.35455e-20)
(1.59225 -0.00146322 0)
(-0.0400657 0.0298153 -1.55023e-20)
(0.0136514 0.0257518 1.33915e-20)
(0.183347 0.00935766 -5.25792e-20)
(0.441146 -0.00476316 -6.86807e-20)
(0.744209 -0.00952247 -1.0015e-21)
(1.04442 -0.00570301 1.72489e-20)
(1.30652 0.00312103 -1.70148e-20)
(1.51584 0.0108054 -1.47298e-20)
(1.672 0.0210155 1.35448e-20)
(1.75926 0.0152018 2.34095e-20)
(-0.0293899 0.0209009 1.73751e-20)
(0.0820606 0.00234141 -1.62746e-20)
(0.337125 -0.0131053 2.65216e-20)
(0.675572 -0.0153678 -1.6936e-21)
(1.02128 -0.00522534 2.08017e-20)
(1.3178 0.0103919 1.8534e-20)
(1.54251 0.02526 1.65234e-20)
(1.6968 0.0347976 1.47295e-20)
(1.79387 0.0409508 1.24473e-20)
(1.857 0.0358542 -1.0815e-20)
(-0.00867274 0.0100445 -7.1932e-22)
(0.182407 -0.019719 -1.79255e-20)
(0.53367 -0.0242493 0)
(0.931946 -0.00814612 2.31835e-20)
(1.27894 0.0159137 -2.34415e-20)
(1.53417 0.0376473 0)
(1.70058 0.0522427 0)
(1.79962 0.0584156 0)
(1.85916 0.0605821 -1.2448e-20)
(1.88956 0.0533663 2.05947e-20)
(0.025136 -0.00177109 4.45336e-20)
(0.317189 -0.0347477 7.77198e-23)
(0.75786 -0.018137 1.70657e-20)
(1.17692 0.0166436 1.25738e-20)
(1.48693 0.0483958 1.1966e-20)
(1.68276 0.0694881 9.81577e-21)
(1.7938 0.079568 0)
(1.85433 0.0815209 6.50961e-21)
(1.88832 0.0793025 -2.61764e-20)
(1.91324 0.0704245 3.39658e-20)
(0.0746258 -0.012291 -7.13567e-20)
(0.482365 -0.0355168 2.03533e-21)
(0.984608 0.00725261 -3.39545e-20)
(1.38428 0.0548567 3.01461e-20)
(1.63702 0.0869966 -3.45557e-20)
(1.77514 0.103004 1.13916e-20)
(1.84453 0.107389 0)
(1.88019 0.104864 -6.51019e-21)
(1.90382 0.0989332 5.27428e-21)
(1.9239 0.0899322 1.34382e-20)
(0.140789 -0.0182465 0)
(0.665236 -0.0167111 0)
(1.19012 0.0496441 -1.78721e-20)
(1.54374 0.102008 1.66373e-20)
(1.73618 0.129094 -1.11456e-20)
(1.82708 0.137902 1.04642e-20)
(1.86789 0.136206 1.31384e-20)
(1.89014 0.129391 -1.2419e-20)
(1.90819 0.120383 -7.35671e-21)
(1.92754 0.110616 3.51081e-21)
(0.222205 -0.0160155 1.50196e-20)
(0.847689 0.0227307 0)
(1.36052 0.10519 -8.33602e-21)
(1.65664 0.155031 3.13212e-20)
(1.79493 0.173569 -1.89467e-20)
(1.85054 0.17418 0)
(1.87358 0.166479 0)
(1.88875 0.155499 0)
(1.90523 0.143635 -5.13739e-21)
(1.9245 0.133072 4.88349e-21)
(0.314324 -0.00264711 -7.70992e-21)
(1.01297 0.0800057 -3.35767e-22)
(1.49106 0.170163 -1.00953e-20)
(1.72872 0.211858 3.67105e-21)
(1.82249 0.219717 3.47312e-21)
(1.85357 0.21183 4.50449e-21)
(1.86623 0.198231 0)
(1.87842 0.183141 -6.08757e-22)
(1.89444 0.16864 -1.43809e-21)
(1.91376 0.156317 1.13963e-21)
(0.410099 0.0233436 0)
(1.15024 0.150597 -6.5103e-21)
(1.58196 0.241164 0)
(1.76629 0.270923 -2.14534e-21)
(1.82578 0.266946 -1.98078e-21)
(1.84077 0.250531 -1.89137e-21)
(1.848 0.231087 0)
(1.85927 0.211839 6.08822e-22)
(1.8757 0.194574 2.39107e-22)
(1.89553 0.179849 -3.6445e-22)
(-0.00969168 0.00928662 0)
(-0.0386551 0.0171534 -2.37125e-21)
(-0.0796644 0.019901 0)
(-0.119445 0.020478 -3.1873e-21)
(-0.155631 0.0201677 -1.03126e-21)
(-0.188229 0.0195929 1.94973e-21)
(-0.21756 0.019069 -1.83617e-21)
(-0.244123 0.0187611 1.80004e-21)
(-0.268625 0.0188008 -6.36585e-24)
(-0.29213 0.0193155 1.65606e-21)
(-0.0112808 0.0266681 -7.47309e-21)
(-0.0395949 0.0496089 4.68479e-21)
(-0.0774157 0.0578156 -4.54525e-21)
(-0.113107 0.0595447 2.11087e-21)
(-0.144619 0.0585125 1.02333e-20)
(-0.171912 0.0565645 -3.85456e-21)
(-0.195231 0.0546609 0)
(-0.214932 0.0533444 -1.79398e-21)
(-0.231497 0.0530519 -1.73154e-21)
(-0.246416 0.0542134 0)
(-0.0141879 0.040727 4.98432e-21)
(-0.0415234 0.0768587 0)
(-0.0736529 0.0902883 1.38389e-20)
(-0.101945 0.0931398 -1.74649e-20)
(-0.124953 0.0911614 4.12939e-21)
(-0.142664 0.0873025 0)
(-0.155257 0.0831572 0)
(-0.162917 0.0797374 0)
(-0.165594 0.0779199 1.42795e-20)
(-0.164953 0.078646 -1.3571e-20)
(-0.017915 0.050155 0)
(-0.0444473 0.09651 -1.02236e-20)
(-0.0694994 0.11448 1.90614e-20)
(-0.0881958 0.118311 -8.92868e-21)
(-0.100032 0.115172 8.61719e-21)
(-0.105193 0.108862 -2.45457e-20)
(-0.103875 0.101462 -2.43882e-22)
(-0.0962892 0.0943929 1.48851e-20)
(-0.0818099 0.0891366 1.44263e-20)
(-0.059955 0.0880692 -2.05815e-20)
(-0.0219796 0.0547595 1.09666e-20)
(-0.0482686 0.107479 -2.12972e-20)
(-0.0658867 0.128625 -1.11057e-22)
(-0.073731 0.132974 1.46086e-22)
(-0.072487 0.128482 8.78101e-21)
(-0.0627208 0.119478 -2.48813e-20)
(-0.0447008 0.108275 0)
(-0.0188409 0.0963438 -7.58687e-21)
(0.015433 0.0855714 7.22385e-21)
(0.0633244 0.0806374 -2.81476e-20)
(-0.0261093 0.0553142 -2.70959e-22)
(-0.0527095 0.110012 2.17485e-20)
(-0.0629617 0.132153 9.99862e-21)
(-0.0588884 0.135964 9.74163e-21)
(-0.0423354 0.129711 8.81578e-21)
(-0.0142638 0.118013 8.35963e-21)
(0.0250262 0.103267 0)
(0.0750064 0.0867934 7.58626e-21)
(0.133677 0.0698545 2.13781e-20)
(0.21976 0.0590562 -7.11278e-21)
(-0.0303126 0.0531708 4.27574e-23)
(-0.0571628 0.105469 1.14117e-20)
(-0.0593759 0.125681 0)
(-0.0411745 0.127175 -1.89044e-20)
(-0.0050731 0.118287 1.79898e-20)
(0.047739 0.103769 0)
(0.116854 0.0862216 0)
(0.202292 0.0675449 0)
(0.291397 0.0461245 -1.43765e-20)
(0.43571 0.0307104 -2.77128e-20)
(-0.0346704 0.0497155 -1.26626e-20)
(-0.0603219 0.0957049 1.18614e-20)
(-0.051514 0.110791 2.17167e-20)
(-0.0137784 0.107864 3.56322e-22)
(0.0502916 0.0952745 1.82069e-20)
(0.139098 0.0779194 1.69426e-20)
(0.250669 0.0585342 1.58933e-20)
(0.385314 0.0409604 1.49318e-20)
(0.510882 0.0188423 1.43745e-20)
(0.72608 0.00536844 -1.29951e-20)
(-0.0389888 0.0458274 -4.06742e-20)
(-0.0595847 0.0823299 -1.17515e-20)
(-0.032811 0.089613 -4.35683e-20)
(0.0349657 0.0806933 -1.98009e-20)
(0.14078 0.0642778 3.03217e-22)
(0.280543 0.0453996 -1.67601e-20)
(0.447234 0.0269056 1.60008e-20)
(0.635162 0.0132236 -1.49297e-20)
(0.803344 -0.00381238 1.41605e-20)
(1.06327 -0.00773922 -2.68988e-20)
(-0.042457 0.0416276 2.74662e-20)
(-0.0507893 0.0661961 0)
(0.00587479 0.0642325 2.24494e-20)
(0.119626 0.0495286 -1.71588e-23)
(0.283975 0.031378 4.59896e-22)
(0.486452 0.0146574 1.71043e-20)
(0.710866 0.00262666 -4.81717e-20)
(0.935547 -0.00540685 0)
(1.1453 -0.0102782 -1.41582e-20)
(1.37778 -0.00515275 0)
(-0.315361 0.0200978 0)
(-0.340068 0.0195182 -1.71308e-21)
(-0.36374 0.0187229 3.46634e-21)
(-0.386536 0.0178479 -1.53101e-21)
(-0.408359 0.0168582 0)
(-0.429028 0.0157236 1.8085e-21)
(-0.448329 0.0144119 -1.81746e-21)
(-0.466005 0.0128887 0)
(-0.481747 0.0111185 0)
(-0.495182 0.0090656 2.24423e-22)
(-0.50586 0.00669256 0)
(-0.513275 0.00396228 0)
(-0.516912 0.00084244 0)
(-0.516371 -0.00267875 0)
(-0.5113 -0.00656184 -2.90136e-22)
(-0.501412 -0.0106756 2.91639e-22)
(-0.486063 -0.0147647 0)
(-0.463117 -0.0186095 -5.48308e-23)
(-0.431352 -0.0222547 5.51193e-23)
(-0.403359 -0.025426 0)
(-0.262311 0.0563174 0)
(-0.28312 0.0547238 4.36229e-22)
(-0.302601 0.0524642 0)
(-0.321231 0.0499607 6.97676e-21)
(-0.339054 0.0471255 -6.77091e-21)
(-0.355892 0.0438845 4.66215e-22)
(-0.371556 0.0401539 -3.69276e-21)
(-0.385827 0.035841 7.86333e-21)
(-0.398453 0.0308544 -6.87371e-21)
(-0.409144 0.0251041 3.89899e-21)
(-0.417557 0.0184996 3.44916e-21)
(-0.423324 0.0109492 -6.31233e-21)
(-0.426101 0.00236085 3.29694e-21)
(-0.425599 -0.00735539 1.77039e-21)
(-0.421506 -0.0181182 -1.3967e-21)
(-0.413581 -0.0296596 2.95146e-22)
(-0.401355 -0.0413543 2.39621e-22)
(-0.383053 -0.052486 2.48324e-22)
(-0.356778 -0.0628952 -2.49527e-22)
(-0.331667 -0.0718717 2.57328e-23)
(-0.168897 0.0818058 -4.37258e-22)
(-0.182429 0.0794315 -4.36998e-22)
(-0.19448 0.0761328 -4.55613e-22)
(-0.205707 0.0723836 0)
(-0.21641 0.0680785 -8.43192e-21)
(-0.226422 0.0631346 6.58334e-21)
(-0.235586 0.0574496 0)
(-0.243726 0.0509088 -9.55992e-22)
(-0.250645 0.0433923 -4.67448e-22)
(-0.256132 0.0347963 6.48722e-21)
(-0.25996 0.0250249 -2.45156e-22)
(-0.261921 0.0139948 -8.12842e-21)
(-0.261981 0.00164816 -4.32413e-22)
(-0.259977 -0.0122224 -3.77895e-22)
(-0.255717 -0.0275695 -3.65039e-22)
(-0.249166 -0.0442213 8.166e-22)
(-0.24017 -0.0615793 -7.46587e-22)
(-0.227735 -0.0786117 -8.70831e-22)
(-0.209751 -0.094535 -1.88482e-22)
(-0.189129 -0.108586 1.20807e-23)
(-0.0504059 0.0913513 -1.38637e-20)
(-0.0550384 0.0894261 -2.37095e-22)
(-0.0577708 0.0858777 2.10425e-22)
(-0.0598369 0.0814184 1.4922e-20)
(-0.061679 0.0762334 1.43655e-21)
(-0.0631593 0.0702115 4.78547e-22)
(-0.064144 0.0631976 -1.47044e-20)
(-0.0645153 0.0550783 8.36275e-21)
(-0.064127 0.0457522 7.88532e-21)
(-0.0628171 0.0351357 -8.21911e-21)
(-0.0604145 0.0231934 2.20853e-22)
(-0.0567221 0.00989991 8.92441e-21)
(-0.0520614 -0.00483896 4.28819e-22)
(-0.0463246 -0.0210937 3.97686e-21)
(-0.0394142 -0.0387874 -2.78388e-21)
(-0.0315085 -0.0578303 -2.39101e-21)
(-0.0227474 -0.0779053 2.09756e-21)
(-0.0130562 -0.0983409 0)
(-0.00239203 -0.117961 3.86249e-22)
(0.0145836 -0.134745 3.28587e-23)
(0.0865538 0.0843523 2.78859e-20)
(0.0924355 0.084017 -1.3906e-20)
(0.0976849 0.0807285 1.48508e-20)
(0.10451 0.076076 0)
(0.111784 0.0706042 -9.64054e-22)
(0.119119 0.0641781 -1.58613e-20)
(0.126623 0.0565359 -1.104e-21)
(0.134449 0.0475358 -2.87475e-23)
(0.142698 0.0371149 1.60822e-20)
(0.151484 0.0252448 9.82319e-22)
(0.160949 0.0119766 0)
(0.170981 -0.00271087 -9.32512e-22)
(0.181298 -0.0190022 0)
(0.192114 -0.0366411 -8.30775e-22)
(0.203354 -0.0554831 0)
(0.214739 -0.0753551 0)
(0.225828 -0.0958961 5.50465e-22)
(0.23661 -0.116849 -7.05128e-22)
(0.245873 -0.137067 6.24422e-22)
(0.260443 -0.155614 -1.827e-22)
(0.252661 0.0646192 0)
(0.267335 0.0657506 -9.25847e-22)
(0.278249 0.0628829 -3.04214e-20)
(0.291483 0.0582906 2.94631e-20)
(0.306075 0.0528716 -9.74353e-22)
(0.320841 0.0464363 0)
(0.335623 0.0386121 -1.61243e-20)
(0.350623 0.0292572 3.12969e-20)
(0.365975 0.0183452 -1.7196e-20)
(0.381771 0.00593881 -1.00564e-21)
(0.397864 -0.00804262 -9.88819e-22)
(0.413859 -0.0236697 -9.6009e-22)
(0.429782 -0.0407308 0)
(0.445809 -0.0589426 5.69549e-21)
(0.461571 -0.0781244 -1.32117e-20)
(0.476929 -0.0980306 5.8747e-21)
(0.491032 -0.118024 -5.72976e-22)
(0.504853 -0.138068 -4.35589e-22)
(0.514383 -0.155957 1.858e-22)
(0.529901 -0.175463 -1.84448e-22)
(0.47079 0.038523 2.74839e-20)
(0.48953 0.0407575 0)
(0.502243 0.037706 -9.40662e-22)
(0.517766 0.0329248 1.90984e-21)
(0.535903 0.0275757 1.94211e-21)
(0.554809 0.0211281 9.82672e-22)
(0.573966 0.0130554 9.93985e-22)
(0.59358 0.00344827 -1.51018e-20)
(0.613795 -0.00770355 1.80786e-20)
(0.634353 -0.0204775 1.78205e-20)
(0.654788 -0.0349225 -1.48214e-20)
(0.67512 -0.0508857 1.89005e-21)
(0.695291 -0.0680156 -7.00979e-21)
(0.715008 -0.0861558 1.37209e-21)
(0.73385 -0.104975 7.9833e-21)
(0.751871 -0.124209 6.67276e-22)
(0.767683 -0.142902 -8.57908e-22)
(0.783364 -0.161513 1.0021e-21)
(0.793086 -0.176475 1.65142e-21)
(0.808717 -0.194101 8.88767e-23)
(0.754073 0.0148013 0)
(0.770373 0.0168065 -3.01339e-20)
(0.78088 0.0122467 3.09457e-20)
(0.794763 0.00668539 -9.54545e-22)
(0.812216 0.000909658 -1.91891e-21)
(0.831083 -0.00617197 -9.8179e-22)
(0.850794 -0.0147397 -1.96264e-21)
(0.871425 -0.0247877 0)
(0.892714 -0.036333 -9.91979e-22)
(0.914319 -0.0494313 -9.81448e-22)
(0.936058 -0.0639532 -9.40499e-22)
(0.957468 -0.0796649 -1.83669e-21)
(0.97842 -0.0964191 0)
(0.998378 -0.113927 0)
(1.01714 -0.131757 -7.46023e-22)
(1.03437 -0.149651 -5.99932e-21)
(1.04917 -0.166459 4.15735e-21)
(1.06284 -0.182946 -3.90916e-22)
(1.07126 -0.195125 -8.42272e-22)
(1.08265 -0.209394 2.4304e-22)
(1.0799 0.00230703 2.80704e-20)
(1.0902 0.00137187 0)
(1.09763 -0.00559525 0)
(1.10877 -0.0123014 -3.00696e-20)
(1.12326 -0.0192368 4.30946e-22)
(1.1395 -0.0275599 6.07752e-20)
(1.15676 -0.0372938 -2.94312e-20)
(1.17462 -0.0483518 0)
(1.19316 -0.0605836 0)
(1.21175 -0.0739464 0)
(1.23033 -0.0884314 4.83235e-22)
(1.24807 -0.103822 1.32085e-21)
(1.26531 -0.119916 1.28592e-20)
(1.28073 -0.136378 -1.23974e-20)
(1.29525 -0.152782 5.19829e-21)
(1.30684 -0.168854 -4.54825e-21)
(1.31729 -0.183501 0)
(1.3239 -0.197345 2.00786e-22)
(1.32914 -0.207089 2.37655e-22)
(1.33078 -0.217421 0)
(1.39786 -0.00368183 -4.58378e-22)
(1.40928 -0.0113252 -2.95925e-20)
(1.41819 -0.0186974 2.92849e-20)
(1.42768 -0.0248838 0)
(1.43782 -0.0319076 2.93403e-20)
(1.44817 -0.0404362 -5.83729e-20)
(1.45897 -0.0503312 2.9035e-20)
(1.46997 -0.0612638 0)
(1.48131 -0.0732919 1.427e-20)
(1.49218 -0.08641 -2.80497e-20)
(1.50305 -0.1005 1.42223e-20)
(1.51258 -0.115317 -4.20032e-22)
(1.52198 -0.130581 0)
(1.52873 -0.145987 -1.11488e-20)
(1.53565 -0.161012 1.54244e-20)
(1.5381 -0.175451 -4.69847e-21)
(1.54199 -0.188232 -3.12362e-21)
(1.53871 -0.199853 2.18498e-21)
(1.53994 -0.207795 1.07203e-21)
(1.52961 -0.215008 0)
(1.71195 -0.000255644 0)
(1.70405 -0.0091677 0)
(1.69802 -0.016737 0)
(1.69298 -0.0244321 0)
(1.68993 -0.0330585 0)
(1.6888 -0.0425174 0)
(1.68955 -0.0526252 0)
(1.69115 -0.0633468 0)
(1.69367 -0.0747716 0)
(1.69586 -0.086908 0)
(1.69859 -0.0996591 0)
(1.69983 -0.112917 0)
(1.70162 -0.126393 0)
(1.70036 -0.139983 0)
(1.70041 -0.153089 0)
(1.69512 -0.165849 0)
(1.69338 -0.177006 0)
(1.68255 -0.187588 0)
(1.68029 -0.194682 0)
(1.66202 -0.201953 0)
(1.8294 0.00687044 0)
(1.83059 -0.00147817 0)
(1.82937 -0.0100277 0)
(1.82727 -0.0193667 0)
(1.82565 -0.0294263 0)
(1.82462 -0.0399773 0)
(1.82437 -0.0509226 0)
(1.8239 -0.0622801 0)
(1.82366 -0.0740656 0)
(1.82238 -0.086289 0)
(1.82135 -0.0988273 0)
(1.81836 -0.111624 0)
(1.81601 -0.124352 0)
(1.81024 -0.136998 0)
(1.80629 -0.14893 0)
(1.7966 -0.160415 0)
(1.79151 -0.170211 0)
(1.77667 -0.179398 0)
(1.77225 -0.18538 0)
(1.75057 -0.191276 0)
(1.90028 0.00877269 0)
(1.90453 -0.00120199 0)
(1.90513 -0.010419 0)
(1.90389 -0.019919 0)
(1.90287 -0.0299163 0)
(1.90219 -0.0403166 0)
(1.90197 -0.0510321 0)
(1.90109 -0.0620529 0)
(1.9001 -0.0733352 0)
(1.89766 -0.084893 0)
(1.89528 -0.0965683 0)
(1.89067 -0.108354 0)
(1.88672 -0.119886 0)
(1.87918 -0.131252 0)
(1.87371 -0.141774 0)
(1.86239 -0.151872 0)
(1.85617 -0.16026 0)
(1.84006 -0.168198 0)
(1.83517 -0.173118 0)
(1.8127 -0.178224 0)
(1.9477 0.0102519 0)
(1.95336 -0.00025735 0)
(1.95467 -0.010253 0)
(1.95375 -0.0200882 0)
(1.95286 -0.0300143 0)
(1.95221 -0.0401312 0)
(1.9519 -0.050423 0)
(1.95079 -0.0608953 0)
(1.94946 -0.0714804 0)
(1.94654 -0.0822058 0)
(1.94366 -0.0929 0)
(1.93847 -0.103606 0)
(1.93402 -0.11395 0)
(1.926 -0.124103 0)
(1.92018 -0.133364 0)
(1.90865 -0.142279 0)
(1.90235 -0.149525 0)
(1.88647 -0.156533 0)
(1.88172 -0.160699 0)
(1.85999 -0.165439 0)
(1.9842 0.010227 0)
(1.99038 -0.000560019 0)
(1.99237 -0.0108114 0)
(1.99188 -0.0205986 0)
(1.99114 -0.0302043 0)
(1.99044 -0.0398481 0)
(1.99002 -0.0495722 0)
(1.98874 -0.0593952 0)
(1.98721 -0.0692309 0)
(1.98408 -0.0791097 0)
(1.98101 -0.0888554 0)
(1.97567 -0.0985445 0)
(1.97113 -0.107812 0)
(1.96316 -0.116878 0)
(1.95745 -0.125055 0)
(1.94628 -0.132952 0)
(1.94029 -0.139271 0)
(1.92518 -0.145503 0)
(1.92078 -0.149112 0)
(1.90036 -0.153484 0)
(2.01857 0.00887808 0)
(2.02479 -0.00159747 0)
(2.0272 -0.0116295 0)
(2.02702 -0.0211392 0)
(2.02633 -0.0303374 0)
(2.02548 -0.0394596 0)
(2.02486 -0.0485785 0)
(2.02337 -0.0577284 0)
(2.02166 -0.0668178 0)
(2.01837 -0.0758775 0)
(2.01518 -0.084734 0)
(2.0098 -0.0934836 0)
(2.0053 -0.10178 0)
(1.99749 -0.109872 0)
(1.99201 -0.117103 0)
(1.9813 -0.124106 0)
(1.97569 -0.129642 0)
(1.96141 -0.135188 0)
(1.95738 -0.138335 0)
(1.93823 -0.142323 0)
(2.05491 0.00699179 0)
(2.06081 -0.00284561 0)
(2.06327 -0.012416 0)
(2.06317 -0.021525 0)
(2.0624 -0.03027 0)
(2.0613 -0.0388518 0)
(2.06038 -0.0473559 0)
(2.05858 -0.055833 0)
(2.05663 -0.0641968 0)
(2.05312 -0.0724786 0)
(2.04978 -0.0805126 0)
(2.04431 -0.0884034 0)
(2.0398 -0.0958305 0)
(2.0321 -0.103052 0)
(2.02679 -0.109458 0)
(2.01644 -0.115671 0)
(2.01114 -0.120538 0)
(1.9975 -0.12547 0)
(1.99376 -0.128225 0)
(1.97563 -0.131836 0)
(2.09385 0.00509508 0)
(2.09912 -0.00403953 0)
(2.10136 -0.0130492 0)
(2.10118 -0.0216677 0)
(2.10025 -0.0299077 0)
(2.09884 -0.0379283 0)
(2.09755 -0.0458152 0)
(2.09538 -0.0536295 0)
(2.09311 -0.0612953 0)
(2.08931 -0.0688438 0)
(2.08576 -0.0761196 0)
(2.08011 -0.0832281 0)
(2.07551 -0.0898768 0)
(2.0678 -0.0963208 0)
(2.06256 -0.102002 0)
(2.05239 -0.107517 0)
(2.04729 -0.111805 0)
(2.03406 -0.116185 0)
(2.03053 -0.118603 0)
(2.01308 -0.121844 0)
(2.1344 0.00334587 0)
(2.1389 -0.00507873 0)
(2.1408 -0.0134605 0)
(2.14045 -0.0215109 0)
(2.13931 -0.029195 0)
(2.13757 -0.0366339 0)
(2.13589 -0.0439037 0)
(2.1333 -0.0510686 0)
(2.13067 -0.0580633 0)
(2.12653 -0.0649186 0)
(2.12271 -0.0714911 0)
(2.11681 -0.0778822 0)
(2.11206 -0.0838278 0)
(2.10423 -0.0895717 0)
(2.09897 -0.0946107 0)
(2.08883 -0.099499 0)
(2.08382 -0.10328 0)
(2.07079 -0.107159 0)
(2.06739 -0.109284 0)
(2.05033 -0.112167 0)
(2.17534 0.00179164 0)
(2.17903 -0.00589717 0)
(2.18052 -0.0135944 0)
(2.17995 -0.0210203 0)
(2.17858 -0.0281099 0)
(2.17649 -0.0349499 0)
(2.17442 -0.0416025 0)
(2.17141 -0.0481294 0)
(2.16839 -0.0544752 0)
(2.16388 -0.0606696 0)
(2.15977 -0.0665824 0)
(2.15357 -0.0723078 0)
(2.14862 -0.0776099 0)
(2.14059 -0.0827158 0)
(2.13525 -0.0871766 0)
(2.12503 -0.0914988 0)
(2.12003 -0.0948285 0)
(2.10703 -0.0982497 0)
(2.1037 -0.100115 0)
(2.08681 -0.102659 0)
(2.21555 0.000515625 0)
(2.21845 -0.00641857 0)
(2.21949 -0.0134061 0)
(2.21865 -0.0201773 0)
(2.21702 -0.026647 0)
(2.2146 -0.0328743 0)
(2.21214 -0.0389086 0)
(2.20871 -0.0448066 0)
(2.20532 -0.0505212 0)
(2.20043 -0.0560804 0)
(2.19601 -0.0613676 0)
(2.18949 -0.0664685 0)
(2.18432 -0.0711743 0)
(2.17603 -0.075692 0)
(2.17056 -0.0796256 0)
(2.16018 -0.0834304 0)
(2.15515 -0.0863525 0)
(2.14207 -0.0893547 0)
(2.13876 -0.0909868 0)
(2.12187 -0.093213 0)
(2.2541 -0.000418974 0)
(2.25621 -0.00660332 0)
(2.25678 -0.0128751 0)
(2.25564 -0.0189754 0)
(2.25375 -0.0248085 0)
(2.251 -0.0304133 0)
(2.24818 -0.0358287 0)
(2.24434 -0.0411055 0)
(2.24059 -0.0462036 0)
(2.23532 -0.0511488 0)
(2.2306 -0.0558378 0)
(2.22375 -0.0603472 0)
(2.21835 -0.0644941 0)
(2.20979 -0.0684639 0)
(2.20417 -0.0719108 0)
(2.19357 -0.0752381 0)
(2.18847 -0.0777878 0)
(2.17524 -0.0804036 0)
(2.17192 -0.0818235 0)
(2.15494 -0.0837547 0)
(2.29012 -0.00100074 0)
(2.29148 -0.006448 0)
(2.29157 -0.0120015 0)
(2.29013 -0.0174212 0)
(2.28799 -0.0226073 0)
(2.28493 -0.0275836 0)
(2.28178 -0.0323808 0)
(2.27756 -0.0370432 0)
(2.27347 -0.0415373 0)
(2.26785 -0.0458858 0)
(2.26284 -0.0499989 0)
(2.25568 -0.0539433 0)
(2.25005 -0.0575614 0)
(2.2412 -0.0610155 0)
(2.23543 -0.0640082 0)
(2.22459 -0.0668904 0)
(2.21941 -0.0690958 0)
(2.20598 -0.0713531 0)
(2.20263 -0.0725778 0)
(2.18549 -0.0742359 0)
(2.32279 -0.00124246 0)
(2.32348 -0.00596773 0)
(2.32314 -0.0108059 0)
(2.32143 -0.0155404 0)
(2.31907 -0.0200734 0)
(2.31573 -0.0244176 0)
(2.31229 -0.0285976 0)
(2.30774 -0.0326515 0)
(2.30335 -0.0365515 0)
(2.29741 -0.0403171 0)
(2.29215 -0.0438717 0)
(2.28469 -0.0472721 0)
(2.27886 -0.0503847 0)
(2.26975 -0.0533487 0)
(2.26382 -0.0559125 0)
(2.25274 -0.0583758 0)
(2.24748 -0.0602589 0)
(2.23383 -0.062181 0)
(2.23046 -0.0632243 0)
(2.21312 -0.0646288 0)
(2.3514 -0.00119836 0)
(2.35153 -0.00521495 0)
(2.35085 -0.00934052 0)
(2.34892 -0.0133858 0)
(2.34639 -0.0172599 0)
(2.34284 -0.0209684 0)
(2.33917 -0.0245309 0)
(2.33435 -0.0279797 0)
(2.32972 -0.0312922 0)
(2.32352 -0.0344845 0)
(2.31805 -0.0374928 0)
(2.31034 -0.0403644 0)
(2.30433 -0.0429884 0)
(2.29499 -0.0454813 0)
(2.28893 -0.047635 0)
(2.27763 -0.0496993 0)
(2.27229 -0.0512768 0)
(2.25843 -0.0528819 0)
(2.25502 -0.0537541 0)
(2.23748 -0.0549212 0)
(2.3754 -0.00096304 0)
(2.37514 -0.00427685 0)
(2.37422 -0.00768765 0)
(2.37215 -0.011036 0)
(2.36953 -0.0142423 0)
(2.36585 -0.0173084 0)
(2.36203 -0.0202496 0)
(2.35702 -0.0230923 0)
(2.35221 -0.0258189 0)
(2.34581 -0.0284421 0)
(2.34018 -0.0309106 0)
(2.33227 -0.0332622 0)
(2.32613 -0.0354081 0)
(2.31658 -0.0374424 0)
(2.31042 -0.0391984 0)
(2.29892 -0.0408774 0)
(2.29352 -0.0421606 0)
(2.27946 -0.0434619 0)
(2.27603 -0.0441702 0)
(2.25829 -0.0451123 0)
(2.39457 -0.000664066 0)
(2.39406 -0.0032701 0)
(2.39301 -0.00595439 0)
(2.3909 -0.00858981 0)
(2.38825 -0.0111123 0)
(2.38452 -0.0135225 0)
(2.38061 -0.0158318 0)
(2.37548 -0.0180614 0)
(2.37056 -0.0201971 0)
(2.36401 -0.0222493 0)
(2.35827 -0.0241777 0)
(2.35022 -0.0260121 0)
(2.34398 -0.0276837 0)
(2.33427 -0.0292659 0)
(2.32803 -0.0306303 0)
(2.31637 -0.0319325 0)
(2.31092 -0.0329276 0)
(2.29669 -0.0339338 0)
(2.29323 -0.0344824 0)
(2.27531 -0.0352079 0)
(2.40894 -0.000415438 0)
(2.4083 -0.00230308 0)
(2.4072 -0.0042418 0)
(2.4051 -0.0061413 0)
(2.40247 -0.00795695 0)
(2.39872 -0.00969155 0)
(2.39478 -0.0113521 0)
(2.38957 -0.0129553 0)
(2.38459 -0.0144888 0)
(2.37795 -0.0159625 0)
(2.37213 -0.0173443 0)
(2.36398 -0.0186593 0)
(2.35766 -0.0198543 0)
(2.34784 -0.0209865 0)
(2.34154 -0.0219595 0)
(2.32975 -0.0228898 0)
(2.32425 -0.0235978 0)
(2.30988 -0.0243153 0)
(2.30641 -0.0247045 0)
(2.28834 -0.0252196 0)
(2.4186 -0.000171769 0)
(2.41789 -0.00134871 0)
(2.41679 -0.00253366 0)
(2.41471 -0.00368538 0)
(2.41211 -0.00478154 0)
(2.40835 -0.00582889 0)
(2.4044 -0.00682908 0)
(2.39914 -0.00779664 0)
(2.39412 -0.00871888 0)
(2.38742 -0.00960823 0)
(2.38156 -0.0104372 0)
(2.37333 -0.0112308 0)
(2.36696 -0.011945 0)
(2.35706 -0.0126292 0)
(2.35072 -0.0132077 0)
(2.33883 -0.0137715 0)
(2.3333 -0.0141892 0)
(2.31883 -0.0146255 0)
(2.31535 -0.0148524 0)
(2.29716 -0.0151639 0)
(2.42342 0.000125075 0)
(2.42272 -0.000319913 0)
(2.42165 -0.000748655 0)
(2.41958 -0.00115656 0)
(2.417 -0.00153937 0)
(2.41325 -0.00190247 0)
(2.40928 -0.00224595 0)
(2.40401 -0.00257739 0)
(2.39897 -0.00289054 0)
(2.39223 -0.00319308 0)
(2.38635 -0.00347211 0)
(2.37808 -0.00374118 0)
(2.37169 -0.00397963 0)
(2.36174 -0.00421163 0)
(2.35537 -0.00440304 0)
(2.34344 -0.00459499 0)
(2.33789 -0.00473141 0)
(2.32337 -0.00488094 0)
(2.31987 -0.00495352 0)
(2.30163 -0.00505986 0)
(1.91777 0.1619 3.56108e-22)
(1.93545 0.145039 0)
(1.94532 0.127717 1.00795e-22)
(1.94994 0.110122 3.47513e-21)
(1.94583 0.0925379 -1.4082e-20)
(1.94001 0.0760551 0)
(1.9239 0.0589411 -1.96935e-20)
(1.89698 0.0459245 0)
(1.88239 0.0278384 -2.45063e-20)
(1.72463 0.00953368 3.90214e-22)
(1.94476 0.147205 -7.39957e-22)
(1.9607 0.132902 2.70315e-23)
(1.96977 0.117759 -2.70864e-23)
(1.97281 0.103685 -1.59601e-21)
(1.97163 0.0880398 3.61134e-21)
(1.95967 0.0753654 3.5361e-22)
(1.96123 0.0599034 0)
(1.91497 0.0481707 1.75052e-20)
(1.94779 0.0367018 0)
(1.82677 0.0167712 2.27651e-20)
(1.9773 0.132389 1.64548e-21)
(1.98919 0.120202 0)
(1.99969 0.106418 2.01333e-24)
(1.99644 0.094534 -1.51233e-21)
(2.00273 0.0806877 -3.96902e-21)
(1.97845 0.0694491 0)
(1.99577 0.0574915 -1.09876e-20)
(1.93802 0.0443698 -1.78786e-20)
(1.97524 0.0371813 0)
(1.89433 0.0202883 -2.2533e-20)
(2.01296 0.119288 -8.05995e-22)
(2.02002 0.108427 2.69212e-21)
(2.03374 0.0963704 0)
(2.02347 0.0853992 -4.89737e-22)
(2.0363 0.0740651 -1.64239e-22)
(2.00419 0.0624204 4.30987e-22)
(2.02482 0.0536902 1.07877e-20)
(1.97133 0.0399453 3.60456e-22)
(1.99393 0.0336261 1.38683e-20)
(1.93959 0.0211944 0)
(2.04982 0.10756 0)
(2.05319 0.0975316 -2.64964e-21)
(2.06902 0.0875759 -2.39894e-21)
(2.0553 0.0769156 1.17292e-22)
(2.06951 0.0680457 -3.49705e-23)
(2.03798 0.0562761 1.83228e-22)
(2.05239 0.0492022 5.62988e-21)
(2.00975 0.036997 6.31242e-22)
(2.01883 0.0299939 -2.73248e-21)
(1.97581 0.0207413 -1.40556e-20)
(2.08658 0.0969105 1.29915e-21)
(2.08845 0.0875434 1.9018e-22)
(2.10383 0.0793829 -8.40175e-22)
(2.09085 0.0692205 1.18258e-22)
(2.10223 0.0618822 -1.34547e-21)
(2.07605 0.0511132 0)
(2.0829 0.0443374 -6.27365e-21)
(2.04884 0.0344802 1.993e-22)
(2.05106 0.0266754 -2.03495e-20)
(2.01071 0.0190204 2.54788e-20)
(2.1227 0.0870732 -1.30555e-21)
(2.12481 0.078505 -2.17118e-21)
(2.13804 0.0714975 2.71169e-21)
(2.12783 0.0623061 -4.05968e-21)
(2.13557 0.0555849 -1.2105e-21)
(2.11471 0.046404 -6.26923e-22)
(2.11712 0.0394132 -1.29699e-22)
(2.08742 0.031354 3.39736e-22)
(2.08761 0.0232709 8.7674e-21)
(2.04773 0.0164556 -1.14487e-20)
(2.15812 0.07793 0)
(2.16099 0.0703301 4.81602e-21)
(2.172 0.0639813 -4.31223e-22)
(2.16439 0.056002 1.84397e-21)
(2.1698 0.0495118 -9.45883e-22)
(2.15239 0.0417882 2.21005e-21)
(2.15345 0.0347417 -1.35591e-22)
(2.1259 0.0277747 0)
(2.1262 0.0200155 0)
(2.08748 0.0137626 0)
(2.19265 0.0694805 0)
(2.19607 0.0628681 -4.69781e-21)
(2.20556 0.0569841 -2.75909e-22)
(2.19966 0.050135 2.59208e-21)
(2.20423 0.04391 3.33665e-21)
(2.18887 0.0372604 -1.69287e-21)
(2.19013 0.030526 2.412e-22)
(2.16449 0.0242724 3.24391e-24)
(2.16537 0.017137 0)
(2.12899 0.0112803 -2.5363e-21)
(2.2259 0.0617278 1.86491e-22)
(2.2295 0.0559929 2.70536e-21)
(2.23816 0.0505759 3.88499e-21)
(2.23333 0.0446375 -1.13576e-22)
(2.23785 0.0388432 3.43917e-22)
(2.22413 0.0329627 -3.4576e-21)
(2.22598 0.0267835 2.081e-21)
(2.20269 0.0210659 -5.11211e-23)
(2.20397 0.0145808 0)
(2.17088 0.00903488 4.15468e-21)
(2.25726 0.0546325 0)
(2.26089 0.0496312 2.91717e-21)
(2.26908 0.044736 3.18882e-22)
(2.26516 0.0395149 0)
(2.26983 0.0342714 0)
(2.25788 0.0289882 3.1305e-21)
(2.26017 0.0234331 -1.70214e-21)
(2.23971 0.0181586 -2.52242e-23)
(2.24115 0.0122893 4.64362e-23)
(2.212 0.00704824 -1.64824e-21)
(2.2861 0.0481165 0)
(2.28981 0.043735 -5.65122e-21)
(2.29763 0.0393964 -5.39089e-21)
(2.29473 0.0347742 7.10628e-22)
(2.29949 0.0301246 -4.31375e-22)
(2.28957 0.0253578 -2.31359e-22)
(2.2921 0.0204185 3.74057e-22)
(2.27478 0.0155599 1.77675e-21)
(2.27621 0.0103011 7.11961e-23)
(2.25141 0.00539439 -1.72013e-24)
(2.31177 0.0420772 0)
(2.31574 0.0382465 3.07692e-21)
(2.32322 0.0344696 -2.95632e-22)
(2.32151 0.0303892 2.9319e-22)
(2.32628 0.0263326 0)
(2.31856 0.0220576 0)
(2.3212 0.0177203 0)
(2.30718 0.0132951 -1.98179e-21)
(2.30854 0.00865087 1.5004e-21)
(2.28822 0.00411715 0)
(2.33371 0.0363927 0)
(2.33811 0.0330792 2.03009e-21)
(2.34529 0.0298523 2.40969e-21)
(2.34492 0.0262954 2.79947e-21)
(2.34966 0.0228182 -5.00651e-22)
(2.34423 0.0190443 2.5862e-21)
(2.34692 0.0153012 -1.88421e-21)
(2.33623 0.0113459 0)
(2.33748 0.00731163 5.59296e-22)
(2.3216 0.00320152 -1.06037e-21)
(2.35153 0.0309191 -4.96051e-22)
(2.35652 0.0281135 -1.66212e-21)
(2.3635 0.0254214 -3.1205e-21)
(2.36452 0.022392 -1.97622e-21)
(2.36924 0.0194811 0)
(2.36607 0.0162344 -3.22423e-21)
(2.36879 0.0130778 2.75597e-21)
(2.36131 0.00963709 -2.44165e-22)
(2.36247 0.00620515 -7.7786e-22)
(2.35078 0.00258698 1.74262e-21)
(2.36521 0.0254976 4.98598e-22)
(2.3709 0.0232065 -1.3461e-21)
(2.37778 0.0210382 1.08844e-21)
(2.38016 0.0185525 -2.48717e-21)
(2.3849 0.0161971 0)
(2.38382 0.0135094 0)
(2.38659 0.0109312 2.74165e-22)
(2.382 0.00805397 -2.40209e-21)
(2.38312 0.00522077 -1.01388e-21)
(2.37519 0.00216975 -7.24061e-22)
(2.37529 0.0199947 0)
(2.38167 0.0182341 2.16804e-21)
(2.38852 0.0165836 -7.27317e-22)
(2.3921 0.0146592 2.25747e-21)
(2.39688 0.0128498 5.71878e-22)
(2.39758 0.0107472 -3.79126e-22)
(2.40041 0.00873945 6.64419e-22)
(2.39827 0.00646622 1.63938e-21)
(2.39939 0.00423205 0)
(2.39459 0.00180964 0)
(2.38258 0.0143807 0)
(2.38952 0.0131645 9.0584e-22)
(2.39633 0.0120293 -1.52908e-21)
(2.40085 0.0106781 0)
(2.40563 0.0094052 -1.08402e-21)
(2.40772 0.00789866 -3.94659e-22)
(2.41059 0.00645272 -1.01749e-21)
(2.41033 0.00479777 -2.33995e-22)
(2.41148 0.00316191 1.42565e-22)
(2.40908 0.00138541 8.181e-23)
(2.38766 0.00868598 0)
(2.39492 0.00802694 -9.10184e-22)
(2.40164 0.00742007 -7.56043e-22)
(2.40676 0.00666539 9.67829e-22)
(2.41152 0.00594073 4.87508e-22)
(2.41451 0.0050495 4.49029e-22)
(2.41739 0.00417355 1.71872e-21)
(2.41839 0.00314976 -1.11079e-21)
(2.41956 0.00211463 2.36106e-22)
(2.41879 0.000984578 0)
(2.3904 0.00276206 0)
(2.39777 0.00267003 4.33028e-22)
(2.40442 0.00259047 -4.01143e-22)
(2.40981 0.002442 3.63499e-22)
(2.41452 0.00227889 0)
(2.41796 0.00203118 -4.51266e-22)
(2.42082 0.00175956 3.26807e-22)
(2.42244 0.00141024 2.40514e-22)
(2.42361 0.00102848 0)
(2.42363 0.000593025 0)
(1.28926 0.306411 0)
(1.24214 0.335294 -5.23664e-20)
(1.20534 0.373038 0)
(1.17567 0.421037 -1.73153e-19)
(1.14951 0.478623 6.75136e-20)
(1.12496 0.548005 2.91584e-21)
(1.10036 0.631071 5.12834e-20)
(1.05787 0.718348 -1.01633e-20)
(0.922891 0.744963 0)
(0.534119 0.473527 4.28113e-20)
(1.37229 0.308686 9.42278e-20)
(1.3279 0.345481 5.23645e-20)
(1.29511 0.382037 -4.78432e-20)
(1.26878 0.428376 5.84239e-20)
(1.24646 0.485388 -4.53159e-20)
(1.22758 0.554197 1.00109e-20)
(1.21032 0.635964 -5.43724e-20)
(1.17375 0.719722 -1.02171e-19)
(1.03226 0.738997 -2.70595e-20)
(0.595815 0.459409 -6.15394e-20)
(1.45144 0.305839 -3.99398e-20)
(1.41323 0.344945 4.09984e-20)
(1.38438 0.380889 4.78411e-20)
(1.36041 0.426316 4.83045e-20)
(1.34128 0.482595 4.82905e-20)
(1.32776 0.550021 4.73681e-20)
(1.31721 0.628934 1.17336e-20)
(1.28478 0.706476 3.95945e-20)
(1.13368 0.715881 9.0248e-21)
(0.647766 0.431911 -9.63377e-21)
(1.52995 0.300139 7.98453e-20)
(1.49669 0.339045 -4.09962e-20)
(1.47072 0.373609 0)
(1.44869 0.417283 0)
(1.4325 0.471573 0)
(1.42382 0.536215 2.88103e-20)
(1.41872 0.610538 -1.93139e-20)
(1.38759 0.679284 0)
(1.22254 0.676134 8.66403e-22)
(0.684815 0.391531 7.03798e-22)
(1.60497 0.291103 -1.26874e-20)
(1.57528 0.328325 5.02968e-20)
(1.55164 0.361111 0)
(1.53164 0.402376 0)
(1.51835 0.453469 1.10859e-20)
(1.51387 0.513943 8.82327e-21)