/*--------------------------------*- C++ -*----------------------------------*\
| =========                 |                                                 |
| \\      /  F ield         | OpenFOAM: The Open Source CFD Toolbox           |
|  \\    /   O peration     | Version:  4.1                                   |
|   \\  /    A nd           | Web:      www.OpenFOAM.org                      |
|    \\/     M anipulation  |                                                 |
\*---------------------------------------------------------------------------*/
FoamFile
{
    version     2.0;
    format      ascii;
    class       surfaceScalarField;
    location    "9.3";
    object      phi;
}
// * * * * * * * * * * * * * * * * * * * * * * * * * * * * * * * * * * * * * //

dimensions      [0 3 -1 0 0 0 0];

internalField   nonuniform List<scalar> 
3890
(
0.00021035
0.00262489
-0.00283524
0.00205562
0.00159894
-0.00344422
0.00637898
-0.00368068
-0.000642674
0.0136701
-0.0120153
0.00472418
0.0238158
-0.0220794
0.0119337
0.0361155
-0.0324788
0.0201791
0.0495402
-0.0420876
0.028663
0.0632354
-0.0503029
0.0366077
0.0763621
-0.0571154
0.0439888
-0.06161
0.0501427
0.0878294
0.00048318
0.00214171
0.00334904
-0.00126691
0.00952831
-0.00985995
0.0191258
-0.0216129
0.0312482
-0.0342017
0.0444927
-0.0457233
0.0575649
-0.0551599
0.0695978
-0.0623357
0.0798877
-0.0674054
-0.070795
0.0890727
0.000890689
0.00125102
0.00507022
-0.00544644
0.0132611
-0.0180508
0.0246663
-0.0330181
0.0374665
-0.0470018
0.0499258
-0.0581825
0.0609792
-0.0662134
0.0702174
-0.0715739
0.0778328
-0.0750207
-0.077314
0.0843518
0.00142846
-0.000177444
0.00711384
-0.0111318
0.017032
-0.027969
0.0291344
-0.0451205
0.0410786
-0.058946
0.0514484
-0.0685524
0.0598439
-0.0746089
0.0665396
-0.0782696
0.0720685
-0.0805496
-0.0821569
0.0769114
0.00208039
-0.00225784
0.00925201
-0.0183034
0.0201124
-0.0388294
0.0316002
-0.0566083
0.0416126
-0.0689584
0.0495037
-0.0764435
0.0555571
-0.0806622
0.0603794
-0.0830919
0.0645388
-0.084709
-0.086114
0.0684959
0.00282002
-0.00507785
0.0111369
-0.0266204
0.0218893
-0.0495817
0.031794
-0.066513
0.0395326
-0.076697
0.0452084
-0.0821193
0.0494686
-0.0849224
0.0529606
-0.0865839
0.0561525
-0.0879009
-0.0891969
0.0592354
0.00356569
-0.00864355
0.0124068
-0.0354615
0.0221385
-0.0593134
0.0300407
-0.0744153
0.035646
-0.0823022
0.039526
-0.0859994
0.0424233
-0.0878197
0.0448909
-0.0890515
0.0472246
-0.0902346
-0.0915179
0.0495456
0.0041957
-0.0128393
0.0128358
-0.0441016
0.0210062
-0.0674838
0.0268849
-0.080294
0.0306551
-0.0860724
0.0331015
-0.0884457
0.0349111
-0.0896293
0.0364906
-0.0906311
0.0380194
-0.0917634
-0.0930375
0.039539
0.00458691
-0.0174262
0.0123927
-0.0519074
0.0188087
-0.0738998
0.0228349
-0.0843202
0.0250709
-0.0883083
0.0263427
-0.0897176
0.0272148
-0.0905013
0.0279633
-0.0913796
0.0286748
-0.0924749
-0.0937288
0.0293662
0.00466553
-0.0220917
0.0112419
-0.0584837
0.0158963
-0.0785542
0.0182937
-0.0867176
0.0192423
-0.0892569
0.0195049
-0.0899802
0.0195138
-0.0905102
0.0194431
-0.0913089
0.0193348
-0.0923666
0.0191883
-0.0935824
-0.000916492
0.000916492
-0.00269974
0.00178325
-0.00491119
0.00221145
-0.00733728
0.00242609
-0.00987678
0.0025395
-0.0124893
0.00261247
-0.015167
0.00267777
-0.0179207
0.00275368
-0.0207767
0.00285604
0.00300435
-0.0237811
-0.000807061
0.00172355
-0.00239614
0.00337233
-0.00436844
0.00418374
-0.00650788
0.00456554
-0.0087008
0.00473242
-0.0108903
0.00480195
-0.0130514
0.00483891
-0.0151798
0.00488209
-0.0172874
0.0049636
0.00513393
-0.019417
-0.000615184
0.00233874
-0.00186459
0.00462174
-0.00340657
0.00572571
-0.00503201
0.00619098
-0.00661223
0.00631265
-0.00806512
0.00625483
-0.00933656
0.00611035
-0.0103949
0.00594044
-0.0112258
0.0057945
0.00574788
-0.0118397
-0.000391921
0.00273066
-0.00122423
0.00545405
-0.00222573
0.00672721
-0.00320239
0.00716763
-0.00401729
0.00712755
-0.00456712
0.00680467
-0.00476565
0.00630887
-0.00454431
0.00571911
-0.00384705
0.00509723
0.00457086
-0.00267002
-0.000189306
0.00291996
-0.000605459
0.0058702
-0.00103902
0.00716077
-0.00131435
0.00744296
-0.00129422
0.00710741
-0.000862543
0.00637299
8.90864e-05
0.00535724
0.001674
0.00413419
0.00399173
0.00277951
0.00137935
0.00718324
-4.72636e-05
0.00296723
-0.000106337
0.00592928
-2.39272e-06
0.00705683
0.000433147
0.00700742
0.00135117
0.00618939
0.00288644
0.00483772
0.00517164
0.00307204
0.00833208
0.000973749
0.0124335
-0.0013219
-0.00421208
0.0180249
1.8316e-05
0.00294891
0.000228938
0.00571865
0.000830991
0.00645478
0.00202078
0.00581764
0.00398679
0.00422338
0.00691149
0.00191302
0.0109549
-0.000971328
0.0162566
-0.004328
0.0226961
-0.00776134
-0.0126915
0.0311755
2.54528e-05
0.00292346
0.000459144
0.00528496
0.00158829
0.00532563
0.00368587
0.00372005
0.00702086
0.000888393
0.0118312
-0.00289733
0.0182631
-0.00740325
0.0263441
-0.012409
0.035805
-0.0172222
-0.0241649
0.0472784
2.20566e-05
0.0029014
0.000723884
0.00458314
0.00254985
0.00349967
0.00589783
0.000372072
0.0111141
-0.00432787
0.0183825
-0.0101657
0.0276823
-0.0167031
0.0386938
-0.0234205
0.0512171
-0.0297456
-0.0373718
0.0644241
6.61616e-05
0.00120508
0.00406208
0.00915833
0.0167641
0.0267775
0.0387374
0.0519246
0.0661678
0.0789386
-0.0256884
0.00190735
-0.0275599
0.00187148
-0.0293713
0.00181134
-0.0311144
0.00174315
-0.0327782
0.0016638
-0.0343478
0.00156962
-0.0358048
0.00145699
-0.0371268
0.00132201
-0.0382876
0.0011608
-0.0392573
0.000969699
-0.0400029
0.000745544
-0.0404881
0.000485218
-0.0406712
0.000183087
-0.0405256
-0.000145539
-0.0400411
-0.000484552
-0.0391979
-0.000843148
-0.0380018
-0.00119611
-0.036478
-0.00152386
-0.0346492
-0.00182876
-0.00207125
-0.0210271
0.00351748
-0.0226239
0.00346825
-0.0241768
0.00336424
-0.0256784
0.00324475
-0.0271192
0.00310463
-0.0284875
0.00293793
-0.0297692
0.00273871
-0.0309469
0.00249967
-0.0320002
0.00221413
-0.0329058
0.0018753
-0.0336372
0.00147689
-0.0341651
0.00101312
-0.0344585
0.000476479
-0.0344742
-0.000129793
-0.0342126
-0.000746157
-0.0336419
-0.0014139
-0.0327468
-0.00209119
-0.0315342
-0.00273645
-0.0300327
-0.00333028
-0.00378909
-0.0129216
0.00459934
-0.0140154
0.00456202
-0.0150989
0.00444782
-0.0161602
0.00430598
-0.0171901
0.00413455
-0.0181792
0.00392706
-0.0191164
0.00367586
-0.0199906
0.00337394
-0.0207906
0.00301405
-0.0215013
0.00258603
-0.022106
0.00208161
-0.0225869
0.00149404
-0.0229284
0.000817912
-0.0230765
1.83498e-05
-0.0230637
-0.000759026
-0.0228426
-0.00163497
-0.0223821
-0.00255166
-0.0216584
-0.00346019
-0.0206786
-0.00431
-0.00498115
-0.00302791
0.00495722
-0.0034958
0.00502991
-0.00398842
0.00494044
-0.00448256
0.00480013
-0.00497626
0.00462825
-0.00546367
0.00441447
-0.00593471
0.00414691
-0.00637844
0.00381767
-0.00678591
0.00342152
-0.0071524
0.00295252
-0.00746745
0.00239667
-0.0077192
0.00174579
-0.00789728
0.000995991
-0.00800784
0.000128908
-0.00802191
-0.000744953
-0.007948
-0.00170888
-0.00776425
-0.00273541
-0.0074341
-0.00379034
-0.00693416
-0.00480994
-0.00566026
0.00747807
0.0046624
0.00764825
0.00485973
0.0077625
0.00482618
0.00786131
0.00470132
0.00794338
0.00454618
0.00800756
0.00435028
0.00806223
0.00409224
0.00811794
0.00376195
0.00818311
0.00335635
0.00826196
0.00287367
0.00835692
0.00230171
0.00847815
0.00162456
0.00862944
0.000844698
0.0088072
-4.88536e-05
0.00900684
-0.000944587
0.0092303
-0.00193235
0.00946635
-0.00297146
0.00972329
-0.00404728
0.0100006
-0.00508726
-0.00609221
0.0187956
0.00389168
0.0194405
0.0042149
0.0200365
0.00423014
0.0206292
0.00410865
0.0212087
0.00396671
0.0217689
0.00379009
0.0223173
0.00354382
0.0228629
0.00321628
0.023411
0.00280827
0.0239633
0.00232142
0.0245196
0.00174534
0.0250892
0.00105501
0.0256845
0.000249399
0.0262368
-0.000601143
0.0268088
-0.00151658
0.0273724
-0.002496
0.0279032
-0.00350223
0.0283981
-0.00454216
0.0287967
-0.00548586
-0.00654988
0.0320677
0.00299942
0.032895
0.00338765
0.033731
0.00339414
0.0346067
0.00323289
0.035496
0.00307748
0.0363942
0.0028919
0.0373092
0.00262873
0.0382443
0.0022812
0.0391983
0.00185425
0.0401672
0.00135258
0.0411543
0.000758202
0.042183
2.63185e-05
0.0431586
-0.000726173
0.04414
-0.00158258
0.0451128
-0.00248939
0.0460652
-0.00344834
0.0469638
-0.00440084
0.0478113
-0.00538964
0.0485277
-0.00620226
-0.00722492
0.0479411
0.00233669
0.0486787
0.00265014
0.049543
0.00252982
0.0504867
0.0022892
0.0514755
0.0020887
0.052526
0.00184138
0.0536441
0.00151059
0.0548195
0.00110579
0.0560448
0.000628948
0.0573204
7.70686e-05
0.05863
-0.00055146
0.0599254
-0.00126906
0.0612508
-0.00205154
0.0625703
-0.0029021
0.0638697
-0.0037888
0.0651388
-0.00471741
0.0663426
-0.00560469
0.067481
-0.00652806
0.0685025
-0.00722368
-0.00814007
0.064845
0.00191575
0.0655481
0.00194708
0.0664658
0.00161209
0.0674606
0.00129438
0.068523
0.00102636
0.0696738
0.000690577
0.0708897
0.000294689
0.0721791
-0.000183611
0.07355
-0.000742043
0.0749728
-0.00134564
0.0764259
-0.00200461
0.077898
-0.00274118
0.0793808
-0.00353432
0.0808608
-0.00438207
0.0823169
-0.00524494
0.0837382
-0.00613866
0.0850945
-0.00696103
0.086376
-0.00780958
0.0875634
-0.00841109
-0.00919828
0.0797274
0.00112699
0.0809142
0.000760276
0.0820857
0.00044055
0.0832112
0.000168936
0.084412
-0.000174417
0.0856772
-0.000574649
0.0869978
-0.00102589
0.0883545
-0.00154039
0.0897275
-0.00211497
0.0911339
-0.0027521
0.0925781
-0.00344882
0.0940471
-0.00421011
0.0955256
-0.00501288
0.0970057
-0.0058621
0.0984652
-0.00670449
0.0998988
-0.00757223
0.101281
-0.0083431
0.102609
-0.00913756
0.103866
-0.00966864
-0.0103198
0.107973
0.0017732
-0.108619
0.107398
0.00133527
0.106934
0.000904764
0.106644
0.000458229
0.1065
-2.96383e-05
0.106469
-0.000544232
0.106538
-0.00109447
0.106672
-0.00167463
0.106856
-0.0022988
0.107073
-0.00296937
0.107299
-0.00367509
0.107512
-0.00442312
0.107687
-0.00518734
0.107807
-0.00598198
0.107848
-0.00674604
0.107803
-0.00752691
0.107654
-0.00819409
0.107402
-0.00888549
0.107048
-0.00931521
-0.00982555
0.116701
0.00183159
-0.11676
0.116618
0.0014183
0.116533
0.000989661
0.116475
0.000516782
0.11643
1.54221e-05
0.116442
-0.00055606
0.116468
-0.00112118
0.116512
-0.00171827
0.116558
-0.00234523
0.116595
-0.00300612
0.116607
-0.0036871
0.116582
-0.00439838
0.116504
-0.00510899
0.116363
-0.00584057
0.116144
-0.00652711
0.115843
-0.00722645
0.115455
-0.00780582
0.11498
-0.00841002
0.114431
-0.00876702
-0.00922982
0.122018
0.00192537
-0.122112
0.122025
0.00141218
0.122079
0.000935571
0.122154
0.000441201
0.122248
-7.79611e-05
0.122321
-0.000629571
0.122389
-0.00118938
0.122441
-0.0017704
0.122467
-0.00237033
0.122456
-0.00299588
0.1224
-0.00363129
0.122291
-0.00428928
0.122118
-0.00493559
0.121875
-0.0055977
0.121555
-0.00620686
0.121157
-0.00682892
0.120682
-0.00733049
0.120136
-0.00786396
0.119538
-0.0081687
-0.00858802
0.125616
0.0019079
-0.125598
0.125693
0.0013345
0.125811
0.000817497
0.125938
0.000314347
0.126061
-0.000200876
0.126162
-0.000729838
0.126241
-0.00126912
0.126294
-0.00182339
0.126311
-0.00238739
0.126285
-0.0029697
0.126207
-0.00355356
0.126072
-0.00415375
0.125871
-0.00473492
0.125602
-0.00532848
0.125261
-0.00586557
0.124849
-0.00641685
0.124369
-0.00685131
0.12383
-0.00732472
0.123247
-0.00758518
-0.00796428
0.128443
0.001771
-0.128306
0.128577
0.00119991
0.128723
0.00067156
0.128868
0.00016965
0.128999
-0.000331551
0.129105
-0.00083655
0.129185
-0.0013483
0.129232
-0.00187059
0.12924
-0.00239598
0.129204
-0.00293344
0.129117
-0.00346604
0.128973
-0.00400985
0.128768
-0.00453011
0.1285
-0.0050601
0.128167
-0.00553316
0.127771
-0.00602116
0.127319
-0.00639876
0.126813
-0.00681866
0.12627
-0.0070423
-0.0073859
0.131111
0.00158651
-0.130927
0.131272
0.00103952
0.131424
0.000519163
0.131568
2.58221e-05
0.131692
-0.000456064
0.131791
-0.000935479
0.13186
-0.0014166
0.131893
-0.00190446
0.131888
-0.00239087
0.131839
-0.00288445
0.131742
-0.00336862
0.131592
-0.0038599
0.131387
-0.00432513
0.131125
-0.00479782
0.130807
-0.00521504
0.130433
-0.00564709
0.13001
-0.00597647
0.12954
-0.0063487
0.12904
-0.00654223
-0.00685214
0.133897
0.00139235
-0.133703
0.134062
0.000874161
0.134208
0.000373507
0.134337
-0.000103589
0.134443
-0.00056196
0.134522
-0.00101422
0.134569
-0.00146375
0.134581
-0.00191666
0.134555
-0.00236496
0.134488
-0.00281679
0.134375
-0.00325619
0.134215
-0.00369943
0.134005
-0.00411551
0.133744
-0.0045371
0.133435
-0.00490573
0.133076
-0.00528847
0.132677
-0.00557676
0.132235
-0.00590667
0.131767
-0.00607504
-0.00635264
0.136851
0.00119905
-0.136657
0.137009
0.000715368
0.13714
0.000243252
0.137246
-0.00020997
0.137327
-0.000642361
0.137378
-0.00106578
0.137398
-0.00148332
0.137383
-0.00190153
0.137331
-0.00231296
0.137239
-0.00272526
0.137106
-0.00312329
0.136929
-0.00352268
0.136709
-0.00389475
0.136442
-0.00427068
0.136133
-0.00459681
0.135781
-0.00493596
0.135393
-0.00518894
0.134967
-0.00548109
0.13452
-0.00562801
-0.00587525
0.139922
0.00101547
-0.139738
0.140066
0.000571576
0.140175
0.000133773
0.140256
-0.000290635
0.140308
-0.000694183
0.140329
-0.00108739
0.140318
-0.00147262
0.140273
-0.00185643
0.140192
-0.00223207
0.140074
-0.00260669
0.139917
-0.00296615
0.139719
-0.00332515
0.139482
-0.00365744
0.139203
-0.00399225
0.138887
-0.00428078
0.138533
-0.00458106
0.138147
-0.00480328
0.137727
-0.00506155
0.137289
-0.00518994
-0.00540903
0.143029
0.000851391
-0.142865
0.143152
0.000448689
0.143238
4.71568e-05
0.143292
-0.000344208
0.143314
-0.00071676
0.143305
-0.00107841
0.143264
-0.00143089
0.143188
-0.00178051
0.143077
-0.00212118
0.14293
-0.00245959
0.142746
-0.00278269
0.142525
-0.0031041
0.142268
-0.00339996
0.141973
-0.00369733
0.141644
-0.00395213
0.141281
-0.0042174
0.14089
-0.00441242
0.140468
-0.00464011
0.140031
-0.00475227
-0.00494546
0.146091
0.00071172
-0.145952
0.14619
0.00034974
0.146252
-1.46497e-05
0.146278
-0.000370243
0.146271
-0.000709989
0.146232
-0.00103896
0.146159
-0.00135829
0.146053
-0.00167387
0.145912
-0.00198027
0.145736
-0.00228367
0.145525
-0.00257216
0.145279
-0.00285821
0.145
-0.00312031
0.144686
-0.00338317
0.144341
-0.00360732
0.143964
-0.00384072
0.143563
-0.00401136
0.143134
-0.00421128
0.142691
-0.00430902
-0.00447852
0.149033
0.000597586
-0.148919
0.149107
0.000276
0.149143
-5.00468e-05
0.149141
-0.000369052
0.149106
-0.000674517
0.149037
-0.000969894
0.148934
-0.00125579
0.148798
-0.00153751
0.148628
-0.00181023
0.148424
-0.00207962
0.148187
-0.00233493
0.147916
-0.00258743
0.147613
-0.00281789
0.147279
-0.00304863
0.146916
-0.00324459
0.146524
-0.0034487
0.14611
-0.00359721
0.145671
-0.00377175
0.145218
-0.00385651
-0.00400441
0.151778
0.000508479
-0.151689
0.151827
0.000227002
0.151837
-6.00873e-05
0.15181
-0.000342004
0.151748
-0.000612302
0.151651
-0.000873462
0.151521
-0.00112572
0.151358
-0.00137377
0.151161
-0.00161336
0.150931
-0.00184957
0.150669
-0.00207285
0.150374
-0.00229325
0.15005
-0.00249378
0.149696
-0.00269432
0.149315
-0.00286404
0.148908
-0.00304094
0.148479
-0.00316909
0.148028
-0.00332026
0.147565
-0.00339319
-0.00352136
0.154243
0.000441081
-0.154175
0.154271
0.00019922
0.154259
-4.88139e-05
0.15421
-0.000293222
0.154126
-0.000527771
0.154007
-0.000754273
0.153854
-0.000972735
0.153667
-0.00118724
0.153448
-0.00139407
0.153196
-0.00159772
0.152913
-0.00178983
0.152599
-0.00197921
0.152256
-0.00215108
0.151885
-0.00232286
0.151489
-0.0024678
0.151067
-0.00261907
0.150626
-0.00272821
0.150163
-0.00285752
0.14969
-0.00291951
-0.00302942
0.156346
0.000387714
-0.156293
0.156361
0.000184812
0.156336
-2.40128e-05
0.156273
-0.00023053
0.156174
-0.000428707
0.15604
-0.000620038
0.155872
-0.000804397
0.15567
-0.000985239
0.155435
-0.00115941
0.155168
-0.00133075
0.15487
-0.00149213
0.154542
-0.00165108
0.154186
-0.00179504
0.153802
-0.00193893
0.153395
-0.00206001
0.152962
-0.00218663
0.152511
-0.00227763
0.15204
-0.00238603
0.151558
-0.00243765
-0.00253016
0.158029
0.000336709
-0.157978
0.158042
0.000172289
0.158014
3.41507e-06
0.157948
-0.000164705
0.157845
-0.000325559
0.157706
-0.000480886
0.157532
-0.000630448
0.157324
-0.000777101
0.157083
-0.000918231
0.156809
-0.001057
0.156504
-0.00118753
0.156169
-0.00131607
0.155807
-0.00143228
0.155416
-0.00154848
0.155002
-0.00164605
0.154564
-0.0017483
0.154108
-0.00182154
0.153631
-0.00190929
0.153144
-0.00195081
-0.00202609
0.159279
0.000276181
-0.159218
0.1593
0.000150776
0.159282
2.18003e-05
0.159223
-0.000105845
0.159126
-0.000228339
0.158992
-0.000346478
0.158821
-0.000460154
0.158616
-0.000571661
0.158377
-0.00067888
0.158104
-0.000784312
0.1578
-0.000883352
0.157465
-0.000980922
0.157101
-0.00106897
0.15671
-0.00115714
0.156295
-0.00123097
0.155855
-0.0013086
0.155398
-0.00136398
0.154919
-0.00143074
0.15443
-0.00146215
-0.00151971
0.160139
0.000199158
-0.160062
0.160176
0.000113898
0.160172
2.59171e-05
0.160126
-5.999e-05
0.160041
-0.000142738
0.159916
-0.000222298
0.159755
-0.000298891
0.159558
-0.000374128
0.159325
-0.000446345
0.159058
-0.000517438
0.158759
-0.000584065
0.158428
-0.000649849
0.158068
-0.000709013
0.157679
-0.000768474
0.157266
-0.000818025
0.156828
-0.00087043
0.156372
-0.000907572
0.155894
-0.000952697
0.155405
-0.000973786
-0.00101283
0.160675
0.000106359
-0.160583
0.160728
6.16621e-05
0.160736
1.75206e-05
0.160703
-2.69873e-05
0.160628
-6.80938e-05
0.160514
-0.000108109
0.160362
-0.000146695
0.160173
-0.000184733
0.159947
-0.000220995
0.159687
-0.000256944
0.159393
-0.000290282
0.159067
-0.000323627
0.158711
-0.000353084
0.158326
-0.000383382
0.157916
-0.000407842
0.15748
-0.000434796
0.157025
-0.000452788
0.156549
-0.000476377
0.156061
-0.000486023
-0.000506467
0.160933
-0.160827
0.160995
0.161012
0.160985
0.160917
0.160809
0.160662
0.160478
0.160257
0.16
0.15971
0.159386
0.159033
0.158649
0.158242
0.157807
0.157354
0.156878
0.156392
0.0965363
0.0176267
-0.0949747
0.0982671
0.0276354
0.1002
0.0376057
0.102286
0.0474598
0.104593
0.0569289
0.107009
0.0660791
0.109255
0.0746657
0.111658
0.0819489
0.110693
0.0900371
0.0899038
0.0980837
0.0161923
-0.0966493
0.0997342
0.0259849
0.101648
0.0356924
0.10381
0.0452975
0.106139
0.0546002
0.108913
0.0633048
0.111346
0.072233
0.114695
0.0785993
0.116782
0.0879501
0.0899263
0.0998641
0.0148954
-0.0985673
0.101436
0.024413
0.103261
0.0338669
0.105467
0.0430923
0.107769
0.052298
0.110682
0.0603919
0.113447
0.0694679
0.116706
0.07534
0.120279
0.0843767
0.0880936
0.101794
0.0137155
-0.100614
0.103312
0.0228946
0.105072
0.0321072
0.107272
0.0408924
0.109621
0.0499492
0.112448
0.0575648
0.115525
0.0663913
0.118556
0.0723083
0.122514
0.0804193
0.085009
0.103824
0.012624
-0.102732
0.105297
0.0214216
0.107051
0.0303531
0.109215
0.038728
0.111672
0.047492
0.11439
0.0548475
0.117633
0.0631479
0.120711
0.0692307
0.124627
0.0765026
0.0813303
0.105913
0.0115946
-0.104884
0.10734
0.0199949
0.109125
0.0285673
0.111268
0.0365858
0.113833
0.0449262
0.116565
0.0521155
0.11988
0.0598332
0.12317
0.0659407
0.127017
0.0726555
0.0774208
0.108021
0.0106122
-0.107038
0.109409
0.0186065
0.111231
0.0267454
0.113394
0.0344226
0.116044
0.0422764
0.118899
0.0492601
0.122269
0.0564631
0.125773
0.0624375
0.129657
0.0687711
0.0733752
0.11011
0.00967214
-0.10917
0.111476
0.0172398
0.113326
0.0248958
0.115549
0.0322
0.118269
0.0395561
0.12128
0.0462493
0.124736
0.053007
0.128426
0.0587474
0.132453
0.0647439
0.0691712
0.112146
0.00877376
-0.111248
0.113507
0.0158789
0.11538
0.0230226
0.117679
0.0299008
0.120475
0.0367607
0.123635
0.0430886
0.127222
0.0494207
0.131099
0.0548698
0.135331
0.0605125
0.0647638
0.114098
0.00791429
-0.113238
0.115463
0.014514
0.117363
0.0211224
0.119741
0.0275224
0.122626
0.0338765
0.12593
0.0397844
0.129678
0.0456724
0.133754
0.0507934
0.138215
0.0560515
0.0601146
0.11593
0.00708804
-0.115104
0.117304
0.0131399
0.119238
0.0191884
0.121695
0.0250658
0.12468
0.030891
0.128127
0.0363371
0.132051
0.041749
0.136334
0.0465105
0.141034
0.0513512
0.055197
0.117602
0.00628778
-0.116801
0.118988
0.0117536
0.120962
0.017214
0.123497
0.0225311
0.12659
0.0277976
0.130181
0.0327463
0.134281
0.0376489
0.138775
0.0420167
0.143719
0.0464078
0.0499963
0.119068
0.00550586
-0.118286
0.12047
0.0103519
0.122489
0.0151949
0.125101
0.0199185
0.128303
0.0245956
0.132036
0.0290133
0.13631
0.033375
0.141016
0.0373111
0.146201
0.0412222
0.0445087
0.120284
0.00473434
-0.119513
0.121705
0.00893169
0.12377
0.0131292
0.126459
0.01723
0.129765
0.0212889
0.133635
0.0251434
0.138076
0.0289345
0.142987
0.0323997
0.148407
0.0358029
0.0387399
0.121219
0.00396461
-0.120449
0.122661
0.00748974
0.124772
0.0110176
0.127532
0.0144704
0.130935
0.017886
0.134931
0.0211471
0.139524
0.0243416
0.144626
0.0272977
0.150261
0.0301683
0.0327076
0.12187
0.00318808
-0.121093
0.123336
0.00602377
0.12549
0.00886334
0.128313
0.0116481
0.131798
0.0144002
0.135904
0.017042
0.140627
0.0196186
0.145894
0.0220305
0.151714
0.0243483
0.0264433
0.122281
0.00239927
-0.121492
0.123771
0.00453447
0.125961
0.00667313
0.128834
0.00877488
0.132385
0.0108494
0.136576
0.0128505
0.141401
0.0147941
0.1468
0.0166315
0.152766
0.0183816
0.0199911
0.122531
0.00160032
-0.121732
0.124038
0.00302766
0.126253
0.00445772
0.129162
0.00586576
0.132758
0.00725371
0.137011
0.00859762
0.141906
0.00989847
0.1474
0.0111373
0.153472
0.0123097
0.0134014
0.122687
0.000800215
-0.121887
0.124202
0.00151304
0.12643
0.00222994
0.129359
0.00293644
0.132981
0.00363209
0.137271
0.00430724
0.14221
0.00495932
0.147765
0.00558304
0.153903
0.00617097
0.00672207
0.122773
-0.121972
0.124286
0.126516
0.129452
0.133084
0.137391
0.142351
0.147934
0.154105
0.0460865
0.059303
-0.0534361
-0.0519534
0.0400054
0.0587547
-0.0526735
0.03415
0.0586264
-0.052771
0.0284693
0.0590197
-0.053339
0.022887
0.0598551
-0.0542728
0.0173623
0.0611595
-0.0556348
0.0118897
0.0629143
-0.0574418
0.00662378
0.0640404
-0.0587744
0.00218211
0.0594648
-0.0550231
0.0353786
-0.0331965
0.0430641
0.0652312
-0.0489922
0.0372217
0.064597
0.0315579
0.0642902
0.0260943
0.0644833
0.0207679
0.0651815
0.0155216
0.0664058
0.0103646
0.0680712
0.00550933
0.0688957
0.00162776
0.0633464
0.0370064
0.0393384
0.0707879
-0.0448952
0.0338101
0.0701253
0.0284147
0.0696855
0.0232116
0.0696863
0.0181755
0.0702175
0.0132591
0.0713223
0.00849432
0.072836
0.00415494
0.0732351
0.000954653
0.0665467
0.0379611
0.0346397
0.0759164
-0.0397682
0.0295611
0.0752039
0.0245724
0.0746743
0.0197445
0.0745142
0.0150854
0.0748767
0.0105718
0.0758358
0.00627158
0.0771363
0.00255734
0.0769493
0.000127163
0.0689769
0.0380882
0.0290435
0.0805689
-0.033696
0.0244701
0.0797773
0.0199892
0.0791551
0.0156501
0.0788533
0.0114684
0.0790584
0.00745008
0.0798541
0.00370241
0.080884
0.000664616
0.0799871
-0.000645897
0.0702874
0.0374423
0.0225643
0.0846507
-0.0266461
0.018583
0.0837587
0.014699
0.0830391
0.0109423
0.0826101
0.00733586
0.0826648
0.00391567
0.0832743
0.000875653
0.083924
-0.00124485
0.0821076
-0.00149216
0.0705347
0.0359502
0.0153076
0.0880548
-0.0187116
0.0119974
0.0870688
0.00878408
0.0862524
0.00567933
0.0857148
0.00273497
0.0856092
-2.33324e-06
0.0860116
-0.00223555
0.0861572
-0.00328384
0.0831559
-0.00235408
0.0696049
0.0335961
0.00736527
0.0907025
-0.0100129
0.00478815
0.0896459
0.00232518
0.0887154
-2.61759e-05
0.0880662
-0.00229663
0.0878796
-0.00427827
0.0879933
-0.00558064
0.0874596
-0.0054499
0.0830251
-0.00318174
0.0673367
0.0304144
-0.00116068
0.0926492
-0.000786076
-0.0029366
0.0914219
-0.00463471
0.0904135
-0.00626013
0.0896916
-0.00772026
0.0893398
-0.00883242
0.0891054
-0.00907381
0.087701
-0.00759525
0.0815466
-0.00390078
0.0636423
0.0265136
-0.0101054
0.00917231
-0.0110502
-0.0119456
-0.0127642
-0.0134047
-0.0135562
-0.0125728
-0.00958043
-0.00442189
0.0442648
0.00417239
-0.0484372
0.0399362
0.00432855
0.0354263
0.00450997
0.0307115
0.0047148
0.0257602
0.00495123
0.0205304
0.00522981
0.0149771
0.00555328
0.00913779
0.00583934
0.00350957
0.00562822
0.00350957
0.0446746
0.00845346
-0.0489556
0.040251
0.00875208
0.0356601
0.00910096
0.0308781
0.00949671
0.0258733
0.00995609
0.0206025
0.0105006
0.0150181
0.0111376
0.00915489
0.0117026
0.00352071
0.0112624
0.00703029
0.0454355
0.0129401
-0.0499221
0.0408323
0.0133552
0.0360879
0.0138454
0.0311784
0.0144062
0.0260709
0.0150635
0.0207214
0.0158501
0.0150813
0.0167778
0.00918334
0.0176005
0.00352679
0.0169189
0.0105571
0.0464347
0.0177027
-0.0511973
0.0415896
0.0182004
0.0366379
0.018797
0.031556
0.0194882
0.0263104
0.0203091
0.0208562
0.0213044
0.0151432
0.0224908
0.00920201
0.0235417
0.0035267
0.0225943
0.0140838
0.0475192
0.0227806
-0.052597
0.0423956
0.023324
0.0372053
0.0239873
0.0319267
0.0247667
0.0265264
0.0257095
0.0209572
0.0268735
0.0151675
0.0282804
0.00918757
0.0295216
0.00350796
0.0282739
0.0175917
0.0485263
0.028167
-0.0539127
0.0431229
0.0287274
0.037687
0.0294232
0.0322058
0.030248
0.0266488
0.0312664
0.0209681
0.0325542
0.0151115
0.0341371
0.00911094
0.0355222
0.0034564
0.0339284
0.0210481
0.0492338
0.0338491
-0.0549159
0.0435586
0.0344025
0.037901
0.0350809
0.0322524
0.0358965
0.0265728
0.036946
0.0208109
0.0383161
0.0149184
0.0400296
0.00893595
0.0415046
0.00335665
0.0395077
0.0244048
0.0496405
0.0397605
-0.0555519
0.0437015
0.0403415
0.0378416
0.0409408
0.0320497
0.0416884
0.0262702
0.0427256
0.0204523
0.0441339
0.0145558
0.0459261
0.00863676
0.0474237
0.00320307
0.0449414
0.0276079
0.0491338
0.046081
-0.0554543
0.0430054
0.0464699
0.0371209
0.0468253
0.031326
0.0474833
0.0255524
0.0484992
0.019769
0.0499173
0.0139475
0.0517476
0.00816689
0.0532043
0.00296353
0.0501448
0.0305714
0.0482638
-0.0556189
0.0420602
0.0361145
0.0302588
0.0244853
0.0187678
0.0130736
0.00750353
0.00262514
0.0527054
-0.000183568
0.0528869
-0.000181543
0.0530661
-0.000179167
0.0532366
-0.000170459
0.0533924
-0.000155857
0.0535283
-0.000135865
0.0536384
-0.000110164
0.0537164
-7.79139e-05
0.0537539
-3.75308e-05
0.0537427
1.11633e-05
0.0536817
6.10313e-05
0.053559
0.000122705
0.0533626
0.000196382
0.0530791
0.000283546
0.0526928
0.00038628
0.0521854
0.000507344
0.0515358
0.000649612
0.0507173
0.000818546
0.0497043
0.001013
0.00126712
0.0534653
-0.000367112
0.0536443
-0.000360451
0.0538175
-0.000352381
0.0539804
-0.000333426
0.0541283
-0.000303693
0.0542557
-0.000263329
0.054357
-0.000211416
0.0544253
-0.00014618
0.0544519
-6.42156e-05
0.0544315
3.15534e-05
0.0543597
0.000132851
0.0542251
0.000257311
0.0540157
0.000405811
0.0537179
0.000581384
0.053316
0.000788179
0.0527915
0.0010318
0.0521233
0.00131782
0.0512841
0.00165776
0.0502494
0.00204772
0.00256084
0.05496
-0.000533111
0.0551218
-0.000522315
0.0552784
-0.00050891
0.0554242
-0.000479249
0.055554
-0.000433508
0.0556624
-0.0003717
0.0557433
-0.000292398
0.0557899
-0.000192755
0.0557933
-6.76378e-05
0.0557527
7.21664e-05
0.0556575
0.000228064
0.0554972
0.000417658
0.0552597
0.000643234
0.0549315
0.000909612
0.0544967
0.00122296
0.0539366
0.00159198
0.0532299
0.00202445
0.0523483
0.00253942
0.0512698
0.00312615
0.00390857
0.0571285
-0.000666814
0.057258
-0.000651823
0.057382
-0.00063292
0.0574951
-0.000592258
0.0575913
-0.000529775
0.0576651
-0.000445527
0.0577105
-0.000337757
0.0577195
-0.000201748
0.0576797
-2.78542e-05
0.0576028
0.000149072
0.0574671
0.000363744
0.057263
0.000621831
0.0569787
0.000927495
0.0566004
0.00128796
0.0561121
0.00171119
0.0554944
0.00220974
0.0547267
0.00279215
0.0537775
0.00348853
0.0526308
0.00427286
0.0053421
0.0598882
-0.000747928
0.0599649
-0.000728549
0.0600352
-0.000703155
0.0600933
-0.000650433
0.0601332
-0.000569619
0.0601486
-0.000460979
0.0601326
-0.00032174
0.0600777
-0.000146774
0.059987
6.27901e-05
0.059848
0.000288036
0.0596472
0.000564588
0.0593746
0.000894426
0.0590187
0.0012834
0.0585649
0.00174171
0.0579978
0.00227832
0.0572961
0.00291147
0.0564411
0.00364717
0.0553957
0.00453387
0.0541534
0.00551515
0.00689853
0.0631425
-0.000750194
0.0631396
-0.000725702
0.0631277
-0.000691228
0.0631019
-0.000624599
0.0630561
-0.000523856
0.062985
-0.000389913
0.062882
-0.000218751
0.0627267
8.5824e-06
0.0625559
0.000233537
0.0623241
0.000519858
0.0620276
0.000861051
0.0616566
0.00126548
0.0611995
0.00174052
0.0606403
0.00230086
0.0599647
0.00295397
0.0591479
0.00372825
0.0581752
0.00461983
0.0570002
0.00570893
0.0556313
0.006884
0.00861711
0.0667923
-0.00064141
0.0666758
-0.000609216
0.0665447
-0.000560101
0.0663956
-0.000475454
0.0662254
-0.000353717
0.0660269
-0.000191354
0.0657836
2.45221e-05
0.0655389
0.000253269
0.0652328
0.000539694
0.0648691
0.000883542
0.0644402
0.00128991
0.0639339
0.00177182
0.0633398
0.00233455
0.0626396
0.00300109
0.0618223
0.00377127
0.0608566
0.00469395
0.0597369
0.00573949
0.058398
0.00704791
0.0568676
0.00841442
0.0105687
0.0707454
-0.000369841
0.0704693
-0.000333147
0.0701763
-0.000267038
0.0698613
-0.00016047
0.0695074
2.04918e-07
0.0691431
0.000172893
0.068765
0.000402685
0.0683353
0.000682955
0.0678571
0.00101783
0.0673215
0.00141916
0.0667208
0.00189061
0.0660403
0.00245232
0.0652724
0.00310246
0.0643921
0.00388142
0.0633951
0.00476828
0.0622361
0.00585295
0.0609333
0.00704223
0.059396
0.00858527
0.0576922
0.0101182
0.012709
0.0749219
0.000113617
0.0744274
0.000161374
0.07391
0.000250323
0.0733734
0.000376124
0.0728327
0.000540901
0.0722571
0.000748551
0.0716511
0.00100864
0.0710052
0.0013289
0.0703131
0.00170996
0.0695633
0.00216889
0.06875
0.0027039
0.0678551
0.00334728
0.0668772
0.00408032
0.065784
0.00497459
0.0645846
0.00596773
0.0631994
0.00723816
0.0616828
0.00855878
0.0598469
0.0104212
0.0579132
0.0120519
0.015168
0.0792847
0.00093325
0.078495
0.000951103
0.0777089
0.00103644
0.0769108
0.00117418
0.076096
0.00135568
0.0752574
0.00158716
0.0743923
0.00187383
0.0734914
0.0022298
0.0725479
0.00265347
0.0715477
0.00316904
0.0704872
0.00376445
0.069344
0.00449042
0.068125
0.00529935
0.0667852
0.00631435
0.0653725
0.00738049
0.0637831
0.00882756
0.0621892
0.0101526
0.0602411
0.0123693
0.0584797
0.0138132
0.0180289
0.0774354
0.000876188
0.0774364
0.000950148
0.0774159
0.00105695
0.0773925
0.00119758
0.0773738
0.00137431
0.0773607
0.00160031
0.0773552
0.00187932
0.0773571
0.00222789
0.0773716
0.00263894
0.0773976
0.00314311
0.0774493
0.00371271
0.0775207
0.004419
0.0776462
0.0051739
0.0778026
0.00615791
0.0780776
0.00710552
0.0783959
0.00850922
0.0789787
0.00956986
0.0796691
0.0116789
0.0811199
0.0123624
0.0155742