/*--------------------------------*- C++ -*----------------------------------*\
| =========                 |                                                 |
| \\      /  F ield         | OpenFOAM: The Open Source CFD Toolbox           |
|  \\    /   O peration     | Version:  4.1                                   |
|   \\  /    A nd           | Web:      www.OpenFOAM.org                      |
|    \\/     M anipulation  |                                                 |
\*---------------------------------------------------------------------------*/
FoamFile
{
    version     2.0;
    format      ascii;
    class       surfaceScalarField;
    location    "1.7";
    object      phi;
}
// * * * * * * * * * * * * * * * * * * * * * * * * * * * * * * * * * * * * * //

dimensions      [0 3 -1 0 0 0 0];

internalField   nonuniform List<scalar> 
3890
(
0.000542575
-0.0047425
0.00419993
0.00173372
-0.011878
0.0106868
0.00327027
-0.0168649
0.0153284
0.00494763
-0.020015
0.0183377
0.00664303
-0.0217559
0.0200605
0.00829332
-0.0225115
0.0208612
0.00987139
-0.0226364
0.0210584
0.0113704
-0.0223973
0.0208982
0.0128046
-0.0219887
0.0205545
-0.0215598
0.0201808
0.0141837
0.000560021
-0.00530252
0.00174932
-0.0130673
0.00324329
-0.0183589
0.00483585
-0.0216076
0.0064133
-0.0233333
0.00792553
-0.0240237
0.00935985
-0.0240708
0.0107227
-0.0237601
0.0120248
-0.0232908
-0.0228017
0.0132667
0.000572308
-0.00587483
0.0017467
-0.0142417
0.00318094
-0.0197931
0.00467102
-0.0230977
0.00611456
-0.0247769
0.00747449
-0.0253836
0.00874899
-0.0253453
0.009951
-0.0249621
0.0110939
-0.0244337
-0.0238871
0.0121793
0.00057823
-0.00645306
0.00172297
-0.0153864
0.00307924
-0.0211494
0.00444941
-0.0244678
0.0057449
-0.0260724
0.00694254
-0.0265813
0.00805099
-0.0264537
0.00908954
-0.0260007
0.0100754
-0.0254196
-0.0248271
0.0110154
0.000576589
-0.00702965
0.00167539
-0.0164852
0.00293474
-0.0224087
0.00416758
-0.0257007
0.00530127
-0.027206
0.00632666
-0.0276066
0.00726223
-0.0273893
0.00813299
-0.0268714
0.00895926
-0.0262459
-0.0256178
0.00975005
0.00056628
-0.00759593
0.0016018
-0.0175207
0.00274515
-0.0235521
0.00382417
-0.0267797
0.00478364
-0.0281655
0.0056282
-0.0284512
0.00638494
-0.028146
0.00708326
-0.0275697
0.0077453
-0.0269079
-0.0262542
0.00838163
0.000546369
-0.0081423
0.0015007
-0.0184751
0.00250958
-0.024561
0.00341969
-0.0276898
0.00419429
-0.0289401
0.00485105
-0.029108
0.0054243
-0.0287193
0.00594652
-0.0280919
0.00644063
-0.027402
-0.0267315
0.00691799
0.000516166
-0.00865846
0.00137146
-0.0193304
0.00222864
-0.0254182
0.00295676
-0.0284179
0.00353796
-0.0295213
0.00400179
-0.0295718
0.00438831
-0.0291058
0.00473171
-0.0284353
0.00505483
-0.0277251
-0.0270459
0.00536919
0.000475281
-0.00913374
0.00121434
-0.0200694
0.00190444
-0.0261083
0.0024398
-0.0289533
0.00282141
-0.0299029
0.00308919
-0.0298396
0.00328729
-0.0293039
0.00345051
-0.0285986
0.00360091
-0.0278755
-0.0271943
0.00374928
0.000423674
-0.00955742
0.00103057
-0.0206763
0.00154039
-0.0266181
0.00187474
-0.0292877
0.00205293
-0.0300811
0.00212343
-0.0299101
0.00213287
-0.0293134
0.00211533
-0.028581
0.00209174
-0.0278519
0.00207528
-0.0271778
0.000349166
-0.000349167
0.00132463
-0.000975458
0.00280083
-0.00147621
0.00464206
-0.00184123
0.00672343
-0.00208138
0.00894186
-0.00221842
0.011219
-0.00227719
0.0134996
-0.00228057
0.0157463
-0.00224666
-0.00218424
0.0179305
0.000354786
-0.000703953
0.00133697
-0.00195764
0.00281954
-0.00295878
0.00466348
-0.00368516
0.00674326
-0.00416116
0.00895629
-0.00443145
0.011225
-0.00454592
0.0134949
-0.00455047
0.0157296
-0.00448135
-0.00435648
0.0179018
0.000364498
-0.00106845
0.00136177
-0.00295491
0.0028561
-0.00445311
0.00470488
-0.00553395
0.00678131
-0.00623759
0.00898331
-0.00663345
0.0112349
-0.00679753
0.0134834
-0.00679898
0.0156941
-0.00669205
-0.00650433
0.017842
0.000379014
-0.00144747
0.00139778
-0.00397367
0.00290859
-0.00596392
0.00476309
-0.00738845
0.00683292
-0.00830742
0.00901723
-0.00881776
0.0112427
-0.00902299
0.0134594
-0.0090157
0.0156351
-0.00886779
-0.00861691
0.0177477
0.000397816
-0.00184528
0.00144344
-0.0050193
0.00297359
-0.00749408
0.00483261
-0.00924747
0.00689054
-0.0103654
0.00904874
-0.010976
0.0112379
-0.0112121
0.0134123
-0.0111901
0.0155427
-0.0109982
-0.010684
0.0176098
0.000420175
-0.00226546
0.00149627
-0.0060954
0.0030461
-0.00904391
0.00490549
-0.0111069
0.00694325
-0.0124031
0.0090642
-0.0130969
0.0112048
-0.0133528
0.0133253
-0.0133106
0.0154007
-0.0130736
-0.0126966
0.0174133
0.000445067
-0.00271052
0.00155291
-0.00720324
0.00311955
-0.0106105
0.00497163
-0.0129589
0.0069774
-0.0144089
0.00904658
-0.0151661
0.0111234
-0.0154295
0.0131762
-0.0153634
0.0151864
-0.0150838
-0.0146485
0.0171383
0.000471179
-0.0031817
0.0016092
-0.00834126
0.00318614
-0.0121875
0.00501937
-0.0147922
0.00697765
-0.0163672
0.00897714
-0.0171656
0.0109715
-0.0174239
0.0129397
-0.0173317
0.0148727
-0.0170168
-0.0165356
0.0167598
0.000497022
-0.00367873
0.00166063
-0.00950487
0.00323761
-0.0137645
0.00503652
-0.0165911
0.00692777
-0.0182584
0.00883519
-0.019073
0.0107234
-0.0193121
0.0125852
-0.0191935
0.014429
-0.0188606
-0.0183534
0.0162468
0.000521201
0.00170317
0.00326707
0.00501366
0.00681574
0.00860391
0.0103502
0.0120549
0.0137488
0.0155763
0.0190276
-0.00109707
0.0199714
-0.000943818
0.02078
-0.000808545
0.0214701
-0.000690167
0.0220568
-0.000586666
0.0225528
-0.000496012
0.0229693
-0.000416509
0.0233161
-0.00034676
0.0236016
-0.000285548
0.0238334
-0.000231781
0.0240179
-0.000184473
0.0241606
-0.000142726
0.0242663
-0.000105715
0.024339
-7.26767e-05
0.0243818
-4.28523e-05
0.024397
-1.51812e-05
0.0243884
8.6119e-06
0.0243608
2.75777e-05
0.0243152
4.56631e-05
6.14075e-05
0.0189846
-0.00217981
0.0199195
-0.00187877
0.0207231
-0.00161211
0.0214112
-0.00137825
0.0219979
-0.00117342
0.0224957
-0.000993755
0.0229152
-0.000836014
0.0232659
-0.000697509
0.0235562
-0.000575875
0.0237934
-0.000468978
0.0239838
-0.000374881
0.0241329
-0.000291814
0.0242454
-0.000218158
0.0243251
-0.000152408
0.0243754
-9.31079e-05
0.0243987
-3.85026e-05
0.0243969
1.04106e-05
0.0243763
4.81302e-05
0.0243377
8.43067e-05
0.000116091
0.0188973
-0.00323508
0.019815
-0.0027965
0.0206087
-0.00240586
0.0212927
-0.00206218
0.0218796
-0.00176033
0.0223807
-0.00149491
0.0228062
-0.00126146
0.0231649
-0.00105621
0.0234648
-0.000875749
0.0237128
-0.000716997
0.023915
-0.00057714
0.0240768
-0.000453604
0.0242027
-0.000344043
0.0242966
-0.000246318
0.024362
-0.000158434
0.0244017
-7.82195e-05
0.0244119
1.56724e-07
0.0244057
5.43257e-05
0.0243816
0.000108474
0.000156604
0.0187626
-0.00424998
0.019655
-0.00368891
0.0204343
-0.00318515
0.0211121
-0.00273996
0.0216992
-0.00234742
0.0222054
-0.00200113
0.0226398
-0.00169581
0.0230104
-0.00142685
0.0233246
-0.00118997
0.0235889
-0.000981284
0.023809
-0.000797196
0.0239898
-0.000634409
0.0241356
-0.000489892
0.0242502
-0.000360869
0.0243365
-0.000244759
0.0243973
-0.000139011
0.0244375
-4.00191e-05
0.0244505
4.1296e-05
0.024447
0.000112004
0.000176137
0.0185732
-0.00521342
0.0194334
-0.0045491
0.0201945
-0.00394621
0.0208647
-0.00341022
0.0214526
-0.00293526
0.021966
-0.00251457
0.0224127
-0.00214248
0.0227996
-0.00181382
0.0231333
-0.00152368
0.0234196
-0.00126753
0.0236636
-0.00104117
0.0238698
-0.000840695
0.0240425
-0.000662523
0.024185
-0.00050339
0.0243006
-0.000360358
0.0243923
-0.000230731
0.0244639
-0.000111656
0.0245016
3.61809e-06
0.024528
8.56419e-05
0.000166726
0.0183162
-0.0061164
0.0191387
-0.00537159
0.0198793
-0.00468683
0.0205421
-0.004073
0.0211324
-0.00352557
0.0216562
-0.00303836
0.0221195
-0.00260573
0.0225278
-0.0022222
0.0228867
-0.00188253
0.023201
-0.00158183
0.0234753
-0.0013155
0.0237138
-0.00107916
0.02392
-0.00086877
0.0240973
-0.000680608
0.0242482
-0.000511308
0.0243753
-0.000357821
0.024481
-0.000217376
0.0245719
-8.72907e-05
0.0246295
2.80194e-05
0.000121769
0.0179741
-0.00695214
0.0187549
-0.00615241
0.0194752
-0.00540713
0.0201331
-0.00473094
0.0207303
-0.00412277
0.0212701
-0.00357816
0.0217562
-0.00309184
0.0221926
-0.00265853
0.0225832
-0.00227316
0.0229322
-0.00193085
0.0232436
-0.00162682
0.0235208
-0.00135645
0.0237674
-0.00111534
0.0239862
-0.000899422
0.0241799
-0.000704983
0.0243508
-0.0005287
0.024501
-0.000367622
0.024633
-0.000219295
0.0247428
-8.17551e-05
3.72349e-05
0.0175262
-0.00771851
0.0182637
-0.00688992
0.0189654
-0.00610884
0.0196222
-0.00538772
0.0202319
-0.00473248
0.0207948
-0.00414108
0.0213118
-0.00360881
0.0217845
-0.0031312
0.0222153
-0.00270398
0.0226073
-0.00232283
0.0229636
-0.0019832
0.0232877
-0.00168046
0.0235824
-0.00141004
0.0238505
-0.00116757
0.0240945
-0.00094903
0.0243166
-0.000750786
0.0245186
-0.000569586
0.024702
-0.00040273
0.0248687
-0.000248477
-0.000106035
0.0169436
-0.00841536
0.0176503
-0.00759661
0.0183464
-0.00680494
0.0190132
-0.00605446
0.0196448
-0.00536408
0.0202388
-0.00473512
0.020794
-0.00416395
0.02131
-0.00364721
0.0217878
-0.00318181
0.0222293
-0.00276437
0.0226371
-0.00239099
0.023014
-0.00205732
0.0233627
-0.00175878
0.023686
-0.00149088
0.0239864
-0.00124935
0.0242658
-0.00103025
0.0245262
-0.000830003
0.0247689
-0.000645423
0.0249943
-0.000473883
-0.000311954
0.0162081
-0.00904725
0.0168818
-0.00827029
0.0175711
-0.00749423
0.0182575
-0.00674082
0.0189249
-0.00603153
0.0195648
-0.00537494
0.0201724
-0.00477161
0.0207455
-0.00422031
0.0212834
-0.00371969
0.0217869
-0.00326785
0.0222578
-0.00286194
0.0226987
-0.0024982
0.0231122
-0.00217229
0.023501
-0.00187968
0.0238675
-0.00161591
0.0242141
-0.00137681
0.0245426
-0.00115851
0.0248547
-0.000957503
0.0251516
-0.000770796
-0.000591906
0.0264883
-0.00788699
-0.0276486
0.0256175
-0.00739951
0.0249475
-0.00682417
0.0244464
-0.00623972
0.0240801
-0.00566525
0.0238163
-0.00511117
0.0236297
-0.00458496
0.0235009
-0.00409151
0.0234152
-0.00363405
0.0233616
-0.00321417
0.0233313
-0.0028317
0.023318
-0.00248488
0.0233166
-0.0021709
0.0233233
-0.00188637
0.0233352
-0.00162777
0.02335
-0.00139161
0.0233661
-0.00117463
0.0233824
-0.000973844
0.0233986
-0.000787008
-0.000608303
0.0271061
-0.00696514
-0.028028
0.0263011
-0.0065945
0.0256393
-0.00616239
0.0251071
-0.0057075
0.0246892
-0.00524738
0.0243678
-0.00478977
0.0241247
-0.00434181
0.0239436
-0.00391042
0.023811
-0.00350146
0.0237159
-0.00311903
0.0236493
-0.00276513
0.0236043
-0.00243989
0.0235754
-0.00214199
0.0235583
-0.00186928
0.0235497
-0.00161919
0.0235472
-0.00138903
0.0235487
-0.00117615
0.0235529
-0.000978069
0.0235589
-0.000792981
-0.000614201
0.0274514
-0.00615602
-0.0282605
0.0267357
-0.00587877
0.0261234
-0.00555014
0.0256098
-0.0051938
0.0251861
-0.00482372
0.0248426
-0.00444632
0.0245685
-0.00406766
0.0243527
-0.00369466
0.0241851
-0.00333387
0.0240565
-0.00299045
0.0239591
-0.00266767
0.0238861
-0.00236693
0.0238323
-0.00208812
0.0237932
-0.00183017
0.0237654
-0.0015914
0.0237462
-0.00136985
0.0237335
-0.00116349
0.0237257
-0.000970298
0.0237216
-0.000788788
-0.000611909
0.0276921
-0.00543434
-0.0284138
0.0270488
-0.00523547
0.0264867
-0.00498806
0.0260022
-0.00470931
0.0255895
-0.00441101
0.0252425
-0.00409931
0.0249546
-0.00377978
0.0247188
-0.00345888
0.024528
-0.00314301
0.0243751
-0.00283753
0.0242536
-0.00254621
0.0241578
-0.00227118
0.0240829
-0.00201318
0.0240247
-0.00177194
0.0239798
-0.00154653
0.0239456
-0.00133567
0.02392
-0.00113785
0.0239012
-0.000951486
0.0238878
-0.000775464
-0.000602679
0.0278704
-0.00478932
-0.0285155
0.027289
-0.00465401
0.0267717
-0.00447073
0.0263165
-0.00425409
0.0259197
-0.00401428
0.0255776
-0.00375715
0.0252858
-0.00348804
0.0250399
-0.00321295
0.0248348
-0.00293787
0.0246652
-0.00266797
0.0245261
-0.00240713
0.0244127
-0.00215781
0.0243208
-0.00192128
0.0242468
-0.00169786
0.0241874
-0.0014872
0.0241403
-0.00128853
0.0241033
-0.00110082
0.0240747
-0.000922912
0.0240532
-0.000753998
-0.000586987
0.028
-0.00421434
-0.028575
0.0274734
-0.00412736
0.0269969
-0.00399424
0.0265702
-0.0038274
0.0261915
-0.00363561
0.0258586
-0.00342423
0.0255688
-0.00319828
0.0253192
-0.00296331
0.0251061
-0.00272484
0.0249259
-0.0024877
0.0247744
-0.00225565
0.0246479
-0.0020313
0.0245428
-0.0018162
0.024456
-0.00161105
0.0243847
-0.00141593
0.0243267
-0.00123049
0.02428
-0.00105409
0.0242429
-0.000885892
0.0242143
-0.0007254
-0.000565596
0.0280894
-0.00370135
-0.0286024
0.0276121
-0.00365008
0.0271736
-0.00355568
0.0267748
-0.00342857
0.0264153
-0.00327614
0.0260942
-0.00310314
0.0258101
-0.00291415
0.025561
-0.00271424
0.0253446
-0.00250842
0.025158
-0.00230113
0.0249983
-0.00209591
0.0248623
-0.00189536
0.0247473
-0.00170117
0.0246505
-0.00151428
0.0245697
-0.00133507
0.0245027
-0.0011635
0.0244478
-0.000999233
0.0244037
-0.000841716
0.0243689
-0.000690693
-0.00053931
0.028147
-0.00324266
-0.0286057
0.0277142
-0.0032172
0.0273108
-0.0031523
0.0269388
-0.00305661
0.026599
-0.00293629
0.0262912
-0.0027954
0.0260151
-0.00263801
0.0257695
-0.00246865
0.0255529
-0.00229182
0.0253633
-0.00211154
0.0251985
-0.00193109
0.0250561
-0.00175297
0.0249338
-0.00157888
0.0248295
-0.00140993
0.0247411
-0.00124668
0.0246669
-0.00108931
0.0246054
-0.000937722
0.0245552
-0.000791584
0.0245154
-0.000650841
-0.000508865
0.0281802
-0.00283126
-0.0285916
0.0277869
-0.00282395
0.0274158
-0.00278121
0.0270694
-0.00271018
0.026749
-0.0026159
0.0264554
-0.00250176
0.0261887
-0.0023713
0.0259485
-0.00222849
0.025734
-0.00207731
0.0255438
-0.00192136
0.0253763
-0.00176363
0.0252298
-0.00160646
0.0251025
-0.00145153
0.0249925
-0.00129999
0.0248984
-0.00115252
0.0248185
-0.00100945
0.0247516
-0.000870858
0.0246966
-0.000736583
0.0246525
-0.000606722
-0.000474942
0.0281951
-0.00246079
-0.0285655
0.0278369
-0.00246578
0.0274951
-0.00243943
0.0271725
-0.00238759
0.0268709
-0.0023143
0.0265915
-0.00222235
0.0263349
-0.00211475
0.0261014
-0.00199494
0.0258905
-0.0018664
0.0257014
-0.00173231
0.0255332
-0.00159535
0.0253844
-0.00145766
0.0252537
-0.00132086
0.0251398
-0.00118608
0.0250413
-0.00105406
0.0249571
-0.00092523
0.024886
-0.000799773
0.0248271
-0.000677668
0.0247795
-0.00055912
-0.000438156
0.0281969
-0.00212553
-0.0285322
0.0278695
-0.00213841
0.027554
-0.00212392
0.0272533
-0.00208685
0.0269694
-0.00203039
0.0267038
-0.00195678
0.0264576
-0.00186856
0.0262313
-0.00176865
0.026025
-0.00166007
0.0258383
-0.00154558
0.0256705
-0.00142756
0.0255208
-0.00130795
0.0253882
-0.00118824
0.0252716
-0.0010695
0.02517
-0.000952511
0.0250825
-0.000837734
0.0250082
-0.000725428
0.0249462
-0.000615665
0.0248958
-0.000508724
-0.00039905
0.02819
-0.00182037
-0.0284951
0.0278894
-0.0018378
0.0275971
-0.00183166
0.0273161
-0.00180582
0.0270485
-0.00176278
0.026796
-0.0017043
0.0265599
-0.00163248
0.0263411
-0.0015498
0.0261398
-0.00145882
0.0259561
-0.00136192
0.0257898
-0.00126118
0.0256401
-0.00115832
0.0255066
-0.00105468
0.0253883
-0.000951278
0.0252847
-0.00084884
0.0251948
-0.000747856
0.025118
-0.000648624
0.0250536
-0.000551273
0.025001
-0.000456125
-0.000358097
0.0281775
-0.00154072
-0.0284572
0.0278999
-0.0015602
0.027628
-0.00155969
0.0273644
-0.00154228
0.0271115
-0.00150988
0.0268711
-0.00146386
0.0266445
-0.00140595
0.026433
-0.00133821
0.0262369
-0.00126279
0.0260567
-0.00118171
0.0258923
-0.00109676
0.0257434
-0.00100944
0.0256097
-0.000920937
0.0254905
-0.000832161
0.0253855
-0.000743794
0.025294
-0.000656309
0.0252153
-0.000570014
0.0251491
-0.000485073
0.0250948
-0.00040182
-0.000315699
0.0281622
-0.00128245
-0.0284205
0.0279041
-0.00130213
0.0276496
-0.00130516
0.0274013
-0.00129395
0.0271613
-0.00126996
0.0269317
-0.00123423
0.0267139
-0.00118816
0.0265091
-0.00113342
0.0263182
-0.00107182
0.0261415
-0.00100503
0.0259793
-0.00093458
0.0258316
-0.000861727
0.0256981
-0.0007875
0.0255787
-0.0007127
0.0254728
-0.000637935
0.0253802
-0.000563641
0.0253003
-0.000490117
0.0252327
-0.000417535
0.0251771
-0.000346223
-0.000272192
0.0281459
-0.00104186
-0.0283865
0.0279042
-0.00106038
0.0276644
-0.00106534
0.027429
-0.00105861
0.0272003
-0.00104124
0.0269801
-0.00101404
0.02677
-0.000978087
0.0265714
-0.000934766
0.0263851
-0.000885524
0.0262118
-0.000831748
0.0260519
-0.000774678
0.0259055
-0.000715364
0.0257727
-0.000654665
0.0256532
-0.000593257
0.025547
-0.000531662
0.0254536
-0.000470264
0.0253728
-0.000409331
0.0253043
-0.000349033
0.0252478
-0.000289666
-0.000227852
0.0281302
-0.000815612
-0.0283564
0.0279018
-0.000832003
0.0276742
-0.000837687
0.0274496
-0.000834063
0.0272303
-0.000821898
0.027018
-0.000801792
0.0268145
-0.000774599
0.0266212
-0.000741399
0.026439
-0.000703338
0.0262688
-0.000661514
0.026111
-0.000616911
0.025966
-0.000570364
0.0258339
-0.000522559
0.0257147
-0.000474043
0.0256082
-0.00042524
0.0255144
-0.000376468
0.0254331
-0.000327957
0.0253639
-0.000279856
0.0253066
-0.000232415
-0.000182904
0.0281162
-0.000600765
-0.028331
0.0278985
-0.000614321
0.0276806
-0.000619771
0.0274647
-0.000618161
0.0272529
-0.000610067
0.027047
-0.000595941
0.0268488
-0.000576428
0.0266598
-0.000552341
0.026481
-0.000524539
0.0263133
-0.000493844
0.0261574
-0.000460988
0.0260136
-0.000426595
0.0258822
-0.000391178
0.0257633
-0.000355146
0.0256569
-0.000318822
0.0255629
-0.000282451
0.0254811
-0.00024621
0.0254115
-0.000210222
0.0253538
-0.000174675
-0.000137528
0.0281049
-0.000394745
-0.0283109
0.0278954
-0.000404885
0.0276849
-0.000409256
0.0274755
-0.000408748
0.0272693
-0.000403828
0.0270681
-0.000394834
0.0268739
-0.000382211
0.0266881
-0.000366508
0.0265119
-0.000348303
0.0263462
-0.000328142
0.0261917
-0.00030651
0.0260489
-0.000283821
0.0259181
-0.000260413
0.0257996
-0.00023656
0.0256932
-0.000212478
0.0255991
-0.00018833
0.0255171
-0.000164239
0.0254472
-0.000140294
0.0253891
-0.000116608
-9.18753e-05
0.0280975
-0.000195363
-0.0282969
0.0278938
-0.000201196
0.0276882
-0.00020367
0.027483
-0.000203521
0.0272803
-0.00020115
0.0270822
-0.000196747
0.0268905
-0.000190527
0.0267068
-0.000182763
0.0265322
-0.000173747
0.0263678
-0.00016375
0.0262143
-0.000153011
0.0260722
-0.000141736
0.0259419
-0.000130092
0.0258236
-0.000118215
0.0257173
-0.000106214
0.0256232
-9.41702e-05
0.0255411
-8.21439e-05
0.025471
-7.01887e-05
0.0254126
-5.8305e-05
-4.61469e-05
0.0280957
-0.028291
0.0278945
0.0276908
0.0274873
0.0272861
0.0270894
0.0268988
0.0267161
0.0265423
0.0263786
0.0262256
0.0260838
0.0259537
0.0258355
0.0257293
0.0256351
0.025553
0.0254828
0.0254245
0.0267708
0.00189129
-0.0265868
0.0269596
0.00356048
0.0271424
0.00518641
0.0273098
0.00675058
0.0274514
0.00823998
0.0275566
0.00964485
0.0276147
0.0109573
0.0276269
0.0121671
0.0275775
0.013316
0.0141126
0.0262277
0.0017194
-0.0260558
0.0264238
0.0033644
0.0266381
0.00497214
0.0268635
0.00652519
0.0270922
0.00801121
0.0273171
0.00941993
0.0275287
0.0107458
0.0277277
0.0119681
0.0278772
0.0131665
0.0139618
0.0257506
0.0015607
-0.0255919
0.0259472
0.00316785
0.0261788
0.00474052
0.02644
0.00626396
0.0267247
0.00772655
0.027027
0.00911764
0.0273379
0.0104348
0.0276566
0.0116495
0.0279645
0.0128586
0.0136658
0.0253404
0.00141844
-0.0251982
0.0255354
0.00297287
0.0257797
0.00449621
0.0260687
0.00597499
0.0263969
0.00739831
0.0267594
0.00875522
0.0271489
0.0100452
0.0275627
0.0112357
0.0279975
0.0124238
0.0132495
0.0249872
0.00128968
-0.0248585
0.0251803
0.00277985
0.0254344
0.00424204
0.0257457
0.00566372
0.0261094
0.00703465
0.0265207
0.00834386
0.0269743
0.00959169
0.027464
0.010746
0.0279945
0.0118933
0.0127285
0.0246819
0.0011722
-0.0245644
0.0248729
0.00258888
0.0251345
0.00398041
0.0254633
0.00533497
0.025855
0.00664297
0.0263051
0.00789374
0.0268093
0.00908752
0.02736
0.0101952
0.027965
0.0112883
0.0121185
0.024417
0.00106383
-0.0243087
0.0246062
0.00239971
0.0248737
0.00371292
0.0252163
0.00499236
0.0256303
0.00622894
0.0261115
0.00741262
0.026656
0.00854296
0.0272562
0.00959498
0.0279195
0.010625
0.0114357
0.0241867
0.000962725
-0.0240856
0.0243744
0.00221198
0.0246466
0.00344074
0.0250004
0.00463859
0.0254323
0.005797
0.0259383
0.00690662
0.0265151
0.00796619
0.0271551
0.00895499
0.0278642
0.00991583
0.0106942
0.0239861
0.000867457
-0.0238909
0.0241728
0.00202536
0.0244488
0.0031647
0.0248116
0.0042758
0.025258
0.00535063
0.0257839
0.00638063
0.0263864
0.00736377
0.0270582
0.00828317
0.0278035
0.00917055
0.00990609
0.0238117
0.000776904
-0.0237212
0.0239975
0.0018396
0.0242767
0.0028855
0.0246468
0.00390567
0.0251049
0.00489261
0.0256469
0.00583856
0.0262698
0.00674088
0.026967
0.00758599
0.0277407
0.00839686
0.00908126
0.0236605
0.000690184
-0.0235738
0.0238456
0.00165449
0.0241275
0.00260365
0.0245036
0.00352952
0.0249711
0.00442514
0.0255261
0.00528353
0.0261653
0.00610168
0.0268826
0.00686869
0.0276786
0.00760085
0.00822769
0.0235301
0.0006066
-0.0234465
0.0237147
0.00146987
0.0239987
0.00231961
0.0243798
0.00314844
0.024855
0.00395
0.0254204
0.00471806
0.0260726
0.00544947
0.0268058
0.00613549
0.0276192
0.00678743
0.00735181
0.0234185
0.000525584
-0.0233375
0.0236027
0.00128563
0.0238886
0.00203373
0.0242737
0.00276329
0.0247551
0.0034686
0.025329
0.00414419
0.0259916
0.00478691
0.0267373
0.00538981
0.0275642
0.00596051
0.00645881
0.0233241
0.000446677
-0.0232452
0.023508
0.00110167
0.0237955
0.00174629
0.024184
0.00237478
0.0246705
0.00298211
0.0252511
0.00356355
0.0259219
0.00411614
0.0266773
0.00463437
0.0275145
0.00512327
0.00555291
0.0232455
0.000369501
-0.0231684
0.0234293
0.000917905
0.023718
0.00145754
0.0241093
0.00198349
0.0246
0.00249148
0.025186
0.0029775
0.0258632
0.00343893
0.0266262
0.00387145
0.0274711
0.00427829
0.00463752
0.0231817
0.000293751
-0.0231059
0.0233653
0.000734282
0.0236552
0.00116767
0.0240488
0.00158992
0.0245427
0.00199749
0.0251331
0.00238717
0.0258153
0.00275673
0.0265838
0.00310291
0.0274344
0.00342771
0.00371548
0.0231316
0.000219172
-0.023057
0.0233151
0.00055075
0.0236059
0.00087687
0.0240014
0.00119446
0.024498
0.00150083
0.0250917
0.00179351
0.0257776
0.00207079
0.0265502
0.00233031
0.0274046
0.0025733
0.00278909
0.0230944
0.000145517
-0.0230207
0.0232779
0.000367258
0.0235694
0.000585276
0.0239664
0.000797496
0.0244652
0.00100208
0.0250613
0.00119738
0.0257499
0.0013822
0.0265252
0.00155501
0.0273819
0.00171657
0.00186014
0.0230692
7.26028e-05
-0.0229963
0.0232527
0.000183692
0.0235451
0.000292943
0.0239433
0.00039925
0.0244437
0.000501683
0.0250417
0.000599403
0.0257321
0.000691801
0.026509
0.000778096
0.0273669
0.000858688
0.000930154
0.0230553
-0.0229827
0.023239
0.0235319
0.0239312
0.0244329
0.0250323
0.0257241
0.0265022
0.0273609
0.0127445
0.0198211
-0.0184414
-0.0141243
0.0112371
0.020318
-0.0188106
0.00968243
0.0209225
-0.0193679
0.00807825
0.0215986
-0.0199944
0.00642991
0.0222941
-0.0206458
0.00476333
0.022893
-0.0212264
0.00313519
0.0230792
-0.0214511
0.00165512
0.0221212
-0.0206411
0.00051303
0.0185345
-0.0173925
0.00959706
-0.00908404
0.011426
0.0212057
-0.0128106
0.0100308
0.0217131
0.00860832
0.0223451
0.00714806
0.0230589
0.00565045
0.0237917
0.00414094
0.0244025
0.00267989
0.0245403
0.0013773
0.0234238
0.000406379
0.0195055
0.0100034
0.0101099
0.0224639
-0.0113681
0.00882309
0.0229999
0.00751605
0.0236521
0.00618551
0.0243894
0.00483343
0.0251438
0.00348498
0.025751
0.00220086
0.0258244
0.00108746
0.0245372
0.000296777
0.0202961
0.0103002
0.0087173
0.0235935
-0.00984689
0.00755778
0.0241594
0.00638015
0.0248297
0.00518737
0.0255822
0.00398668
0.0263445
0.0028062
0.0269315
0.00170753
0.0269231
0.000791997
0.0254527
0.00018698
0.0209012
0.0104872
0.00725339
0.0245843
-0.00824425
0.00623598
0.0251768
0.00520184
0.0258639
0.00415791
0.0266261
0.00311746
0.0273849
0.00211303
0.0279359
0.00120727
0.0278288
0.000495437
0.0261645
7.955e-05
0.0213171
0.0105668
0.00573567
0.025425
-0.00657629
0.00487135
0.0260412
0.00399155
0.0267437
0.00310646
0.0275112
0.00223493
0.0282565
0.00141426
0.0287566
0.000707014
0.0285361
0.000198397
0.0266732
-2.37138e-05
0.0215392
0.010543
0.00418219
0.0261083
-0.00486552
0.00347791
0.0267454
0.00276053
0.0274611
0.00204272
0.028229
0.00134789
0.0289513
0.00071809
0.0293864
0.000212123
0.029042
-8.93994e-05
0.0269747
-0.000124056
0.0215738
0.010419
0.00260866
0.0266297
-0.00313005
0.00206932
0.0272848
0.00152058
0.0280098
0.000976969
0.0287726
0.000465541
0.0294627
2.81533e-05
0.0298237
-0.000262987
0.0293332
-0.000344541
0.0270562
-0.000209921
0.0214392
0.0102091
0.00102842
0.0269886
-0.00138736
0.000658732
0.0276545
0.000285013
0.0283835
-7.72799e-05
0.0291349
-0.000398883
0.0297843
-0.00062962
0.0300545
-0.000711794
0.0294154
-0.000592279
0.0269367
-0.000289992
0.0211369
0.00991907
-0.000542819
0.000353627
-0.000740269
-0.000937773
-0.00111621
-0.00124198
-0.00126859
-0.00114089
-0.000822244
-0.000361649
0.0184005
0.00191894
-0.0203194
0.0164179
0.00198262
0.0143649
0.00205293
0.0122347
0.00213028
0.0100204
0.00221423
0.00772392
0.00229651
0.00537422
0.00234969
0.00307176
0.00230246
0.00107949
0.00199227
0.00107949
0.0183092
0.00383227
-0.0202226
0.0163329
0.00395898
0.014287
0.00409881
0.0121646
0.00425271
0.00995916
0.00441964
0.00767268
0.00458299
0.00533423
0.00468814
0.00304502
0.00459167
0.00107053
0.00396676
0.00215002
0.0181257
0.00573374
-0.0200271
0.016162
0.00592262
0.0141303
0.00613053
0.0120236
0.00635942
0.00983584
0.00660741
0.00756967
0.00684916
0.0052553
0.00700251
0.00299445
0.00685252
0.00104912
0.0059121
0.00319914
0.0178485
0.00761689
-0.0197316
0.0159043
0.00786678
0.0138941
0.00814075
0.0118111
0.00844235
0.00965007
0.00876848
0.00741461
0.00908463
0.00513644
0.00928068
0.002918
0.00907096
0.00101762
0.00781247
0.00421676
0.0174766
0.00947522
-0.0193349
0.0155587
0.00978472
0.0135772
0.0101222
0.0115261
0.0104934
0.00940088
0.0108937
0.00720671
0.0112788
0.00497722
0.0115102
0.00281575
0.0112324
0.000975766
0.00965246
0.00519252
0.0170086
0.0113023
-0.0188357
0.0151233
0.01167
0.0131778
0.0120677
0.0111668
0.0125044
0.00908684
0.0129737
0.00694495
0.0134207
0.00477704
0.0136781
0.00268751
0.013322
0.000923509
0.0114165
0.00611603
0.0164472
0.0130946
-0.0182394
0.0145989
0.0135183
0.0126954
0.0139713
0.0107321
0.0144676
0.0087067
0.0149991
0.00662822
0.0154992
0.00453527
0.015771
0.0025331
0.0153241
0.000860911
0.0130887
0.00697694
0.0157873
0.0148527
-0.0175454
0.0139763
0.0153294
0.0121224
0.0158251
0.0102167
0.0163733
0.00825676
0.0169591
0.00625436
0.0175016
0.00425092
0.0177745
0.00235235
0.0172227
0.000788113
0.0146529
0.00776506
0.0150417
0.0165983
-0.0167873
0.0132689
0.0171021
0.0114686
0.0176254
0.00962384
0.0182181
0.00773706
0.0188458
0.00582273
0.0194159
0.00392373
0.0196735
0.00214549
0.0190009
0.000705459
0.0160929
0.00847052
0.0141686
-0.0160116
0.0124601
0.0107176
0.00894131
0.00714139
0.00533084
0.00355321
0.00191305
0.000613523
0.0236347
-0.000105804
0.0237375
-0.000102787
0.0238326
-9.5106e-05
0.0239166
-8.4037e-05
0.0239863
-6.9691e-05
0.0240385
-5.22075e-05
0.0240704
-3.18562e-05
0.0240798
-9.36814e-06
0.0240583
2.14321e-05
0.0240016
5.67367e-05
0.0239067
9.48691e-05
0.0237697
0.00013705
0.0235855
0.000184147
0.0233484
0.000237113
0.0230513
0.000297095
0.0226858
0.000365469
0.022242
0.000443844
0.021708
0.000533989
0.0210707
0.000637361
0.000751231
0.0236694
-0.000205116
0.0237653
-0.000198752
0.0238535
-0.000183223
0.0239304
-0.00016101
0.023993
-0.000132253
0.024038
-9.71783e-05
0.0240624
-5.62885e-05
0.0240644
-1.13858e-05
0.0240338
5.20789e-05
0.0239688
0.000121724
0.023866
0.000197631
0.0237213
0.00028174
0.0235298
0.000375668
0.0232856
0.000481293
0.0229818
0.000600896
0.0226101
0.000737216
0.0221605
0.000893471
0.0216212
0.0010732
0.0209791
0.00127952
0.00150774
0.0237377
-0.000290455
0.0238194
-0.000280468
0.0238931
-0.000256934
0.0239554
-0.000223352
0.0240031
-0.000179971
0.0240332
-0.000127254
0.0240431
-6.61871e-05
0.0240323
-5.24627e-07
0.0239839
0.000100389
0.0239023
0.000203373
0.0237835
0.000316447
0.0236233
0.000441921
0.0234169
0.000582083
0.0231585
0.000739719
0.0228411
0.000918207
0.0224567
0.00112162
0.0219954
0.00135477
0.0214457
0.00162293
0.0207941
0.00193114
0.0022747
0.023837
-0.000354693
0.0238974
-0.000340861
0.0239498
-0.000309407
0.023991
-0.000264533
0.0240177
-0.000206621
0.0240268
-0.000136377
0.0240163
-5.56585e-05
0.0239711
4.46461e-05
0.0238994
0.000172118
0.0237944
0.000308357
0.0236526
0.000458254
0.0234699
0.000624614
0.0232415
0.000810426
0.0229619
0.00101932
0.0226244
0.00125573
0.022221
0.00152502
0.0217422
0.00183354
0.0211769
0.00218822
0.0205122
0.00259586
0.00305532
0.0239626
-0.000390122
0.0239935
-0.000371802
0.0240163
-0.000332152
0.0240274
-0.00027566
0.0240238
-0.000202972
0.0240028
-0.000115415
0.023966
-1.89018e-05
0.0238876
0.000123123
0.0237825
0.000277213
0.0236451
0.000445713
0.0234717
0.000631668
0.0232583
0.000838047
0.0230002
0.00106851
0.022692
0.00132749
0.0223273
0.00162041
0.0218986
0.00195378
0.0213967
0.00233541
0.0208113
0.00277369
0.0201308
0.00327629
0.00385122
0.0241127
-0.000389149
0.0241072
-0.000366316
0.0240938
-0.000318822
0.0240691
-0.000250872
0.0240295
-0.000163445
0.0239745
-6.03714e-05
0.0238816
7.39559e-05
0.0237643
0.000240428
0.0236198
0.000421763
0.0234436
0.000621887
0.0232321
0.000843188
0.0229813
0.00108887
0.0226867
0.00136308
0.0223432
0.00167093
0.021945
0.0020187
0.0214848
0.00241389
0.0209547
0.00286553
0.020345
0.00338341
0.0196472
0.00397408
0.00466273
0.0242788
-0.000342944
0.0242274
-0.000314894
0.0241684
-0.000259836
0.0240979
-0.000180351
0.0240155
-8.10494e-05
0.0239115
4.35998e-05
0.0237693
0.000216125
0.0236056
0.000404208
0.0234137
0.000613581
0.0231905
0.000845138
0.0229325
0.00110118
0.0226361
0.00138525
0.0222973
0.00170194
0.0219112
0.00205694
0.0214728
0.00245718
0.0209758
0.00291085
0.0204136
0.00342777
0.0197777
0.00401927
0.0190636
0.00468813
0.00548695
0.0244677
-0.000243631
0.024364
-0.000211237
0.024253
-0.000148791
0.0241342
-6.15466e-05
0.0239935
5.96343e-05
0.0238145
0.000222536
0.0236214
0.000409273
0.0234038
0.000621804
0.0231584
0.000858983
0.0228821
0.00112139
0.0225719
0.00141139
0.0222245
0.00173271
0.0218361
0.00209031
0.0214027
0.00249034
0.0209197
0.00294017
0.020382
0.00344852
0.0197842
0.00402564
0.019119
0.00468441
0.0183845
0.00542269
0.00632599
0.024652
-8.16561e-05
0.0244883
-4.75348e-05
0.024328
1.14928e-05
0.0241361
0.000130424
0.0239206
0.000275084
0.0236902
0.000452964
0.0234367