/*--------------------------------*- C++ -*----------------------------------*\
| =========                 |                                                 |
| \\      /  F ield         | OpenFOAM: The Open Source CFD Toolbox           |
|  \\    /   O peration     | Version:  4.1                                   |
|   \\  /    A nd           | Web:      www.OpenFOAM.org                      |
|    \\/     M anipulation  |                                                 |
\*---------------------------------------------------------------------------*/
FoamFile
{
    version     2.0;
    format      ascii;
    class       volScalarField;
    location    "2.4";
    object      p;
}
// * * * * * * * * * * * * * * * * * * * * * * * * * * * * * * * * * * * * * //

dimensions      [0 2 -2 0 0 0 0];

internalField   nonuniform List<scalar> 
2000
(
0.132226
0.140136
0.14803
0.15786
0.169013
0.180135
0.190212
0.1987
0.205211
0.209343
0.127173
0.135911
0.145099
0.156719
0.169881
0.182963
0.19482
0.204841
0.212597
0.218181
0.123533
0.133152
0.143873
0.157554
0.172921
0.188057
0.20172
0.213298
0.222461
0.229592
0.121748
0.132293
0.144776
0.160748
0.178434
0.195632
0.21103
0.22406
0.234497
0.242909
0.122286
0.13379
0.148236
0.166662
0.186702
0.205891
0.222906
0.237255
0.248836
0.258364
0.125626
0.138107
0.154662
0.175623
0.197954
0.218987
0.237442
0.252939
0.265518
0.276011
0.132244
0.14569
0.164437
0.187911
0.212375
0.235036
0.254715
0.27117
0.2846
0.295903
0.142588
0.156947
0.177894
0.203744
0.23009
0.254104
0.274756
0.291969
0.306102
0.318056
0.157049
0.172226
0.195291
0.223265
0.251159
0.276201
0.29755
0.315307
0.329984
0.342408
0.175939
0.191792
0.216791
0.246531
0.275569
0.301277
0.323031
0.341103
0.356136
0.368803
0.184501
0.18791
0.19181
0.19592
0.199462
0.20178
0.202499
0.201477
0.198761
0.194513
0.183095
0.18659
0.190515
0.194664
0.198283
0.200723
0.201603
0.200776
0.198279
0.19426
0.180339
0.184006
0.187991
0.192221
0.196001
0.198692
0.1999
0.19946
0.197398
0.193831
0.176347
0.180272
0.184363
0.188736
0.192781
0.195863
0.19757
0.197703
0.196277
0.193367
0.171283
0.175552
0.179809
0.184415
0.188853
0.192483
0.194861
0.195748
0.195134
0.193063
0.165354
0.170051
0.174554
0.179514
0.184503
0.188858
0.192084
0.193889
0.194238
0.193151
0.158803
0.164006
0.168862
0.174333
0.180059
0.185329
0.189575
0.192443
0.193879
0.193885
0.151904
0.157686
0.163028
0.169204
0.175887
0.18227
0.187687
0.19172
0.19432
0.195465
0.144955
0.151385
0.157376
0.164492
0.172385
0.180103
0.186852
0.192143
0.195902
0.19788
0.13828
0.14542
0.152254
0.160582
0.169967
0.179275
0.187591
0.194394
0.199438
0.201661
0.188882
0.182157
0.174616
0.166401
0.157633
0.148433
0.138901
0.129119
0.119151
0.109044
0.0988377
0.0885599
0.0782326
0.0678718
0.0574893
0.0470939
0.0366911
0.0262869
0.0158646
0.00551114
0.188675
0.182106
0.174758
0.166681
0.157999
0.148851
0.13935
0.129581
0.119611
0.109491
0.0992617
0.0889539
0.0785906
0.0681891
0.0577624
0.0473198
0.0368679
0.0264148
0.0159461
0.00557171
0.188351
0.182087
0.175102
0.167286
0.158763
0.149714
0.140271
0.130525
0.120548
0.110398
0.100122
0.0897517
0.0793149
0.0688308
0.0583139
0.0477752
0.0372225
0.0266646
0.0160846
0.0055796
0.188046
0.182216
0.175727
0.168259
0.159953
0.151041
0.141676
0.131957
0.121965
0.111768
0.101418
0.0909537
0.0804055
0.0697964
0.0591436
0.0484603
0.0377556
0.02704
0.0162978
0.00562905
0.187958
0.18267
0.176758
0.169685
0.161629
0.152877
0.143599
0.133905
0.123885
0.113619
0.103166
0.0925722
0.0818729
0.071095
0.0602592
0.0493815
0.0384734
0.027548
0.0165922
0.00570265
0.188315
0.183644
0.178332
0.171653
0.163853
0.155269
0.146077
0.136394
0.126326
0.115964
0.105376
0.0946161
0.0837246
0.0727334
0.0616673
0.0505455
0.0393822
0.0281931
0.0169684
0.00579791
0.189361
0.185359
0.18061
0.174271
0.166701
0.158272
0.149151
0.139458
0.129317
0.118828
0.108069
0.0971016
0.0859731
0.0747209
0.0633742
0.051956
0.0404837
0.0289758
0.0174268
0.00591868
0.191286
0.18798
0.183727
0.177644
0.170247
0.161925
0.152831
0.143093
0.132844
0.122196
0.111233
0.100024
0.0886214
0.0770677
0.0653964
0.0536341
0.0418011
0.0299185
0.0179858
0.00607574
0.193731
0.191256
0.187566
0.181769
0.174559
0.16633
0.157228
0.147398
0.136987
0.126116
0.114884
0.103366
0.0916257
0.079711
0.0676607
0.0555049
0.0432663
0.0309667
0.0186084
0.00625524
0.197146
0.195699
0.192407
0.186845
0.179787
0.171615
0.162505
0.152605
0.142058
0.130984
0.119485
0.107644
0.0955291
0.0831953
0.0706873
0.0580412
0.0452846
0.0324427
0.0195195
0.00656257
0.207388
0.202962
0.198515
0.192278
0.184557
0.175797
0.166195
0.155872
0.144947
0.133534
0.121728
0.109605
0.0972264
0.0846444
0.0719002
0.0590277
0.0460533
0.032999
0.0198702
0.00668918
0.214037
0.207238
0.201124
0.193882
0.185449
0.176185
0.166258
0.155736
0.144698
0.133228
0.121403
0.109286
0.0969287
0.0843757
0.071664
0.0588241
0.0458805
0.0328527
0.0197542
0.00660254
0.219818
0.211577
0.204203
0.196049
0.186945
0.177171
0.166866
0.156075
0.144848
0.133251
0.121343
0.109175
0.096791
0.0842279
0.0715176
0.0586868
0.0457584
0.0327491
0.0196809
0.0065516
0.22528
0.215961
0.2075
0.198478
0.188725
0.178455
0.16777
0.156696
0.145262
0.133515
0.1215
0.109258
0.0968236
0.0842273
0.0714967
0.0586547
0.0457225
0.0327133
0.019655
0.00652193
0.230433
0.220185
0.210756
0.200942
0.190586
0.179846
0.168793
0.157434
0.145785
0.133877
0.121744
0.109415
0.0969177
0.0842775
0.0715168
0.0586549
0.045711
0.0326945
0.0196378
0.00649552
0.235211
0.224176
0.213904
0.20339
0.192489
0.181313
0.169908
0.15827
0.146403
0.134327
0.122065
0.109639
0.0970692
0.0843753
0.0715755
0.0586856
0.0457226
0.0326922
0.0196308
0.00647514
0.239585
0.227901
0.216905
0.20578
0.19439
0.182815
0.17108
0.159174
0.147093
0.134848
0.122453
0.109923
0.0972729
0.0845176
0.0716712
0.0587463
0.0457576
0.0327072
0.0196348
0.00646118
0.243559
0.231341
0.219728
0.20807
0.196248
0.184312
0.172273
0.160114
0.147827
0.135416
0.122887
0.110251
0.0975166
0.084695
0.0717969
0.0588316
0.0458119
0.0327366
0.0196478
0.00645258
0.247143
0.234486
0.222349
0.210232
0.198031
0.185772
0.173456
0.161063
0.148582
0.136011
0.123351
0.110609
0.0977885
0.0848981
0.071945
0.0589359
0.0458814
0.0327773
0.019668
0.0064485
0.250352
0.237333
0.224755
0.212245
0.199713
0.187168
0.174603
0.161997
0.149336
0.136613
0.123829
0.110983
0.0980777
0.085118
0.0721086
0.0590535
0.0459619
0.0328267
0.0196937
0.00644817
0.253204
0.239885
0.226938
0.214094
0.201276
0.188481
0.175694
0.162896
0.150069
0.137207
0.124305
0.11136
0.0983737
0.0853461
0.0722807
0.0591793
0.0460496
0.0328819
0.0197234
0.00645079
0.255716
0.242151
0.228895
0.215768
0.202706
0.189693
0.176712
0.163742
0.150768
0.137778
0.124767
0.111731
0.0986668
0.0855744
0.0724547
0.059308
0.0461403
0.0329402
0.0197552
0.00645558
0.257907
0.244137
0.230626
0.217263
0.203993
0.190793
0.177643
0.164523
0.151417
0.138313
0.125204
0.112084
0.0989484
0.0857955
0.0726248
0.0594348
0.0462307
0.0329988
0.0197877
0.00646181
0.25979
0.245854
0.232132
0.218573
0.205129
0.191771
0.178476
0.165226
0.152006
0.138802
0.125606
0.112411
0.0992109
0.086003
0.0727854
0.0595554
0.0463172
0.0330556
0.0198194
0.00646879
0.26138
0.247309
0.233417
0.219697
0.206109
0.192619
0.179203
0.165844
0.152526
0.139236
0.125965
0.112704
0.0994478
0.0861913
0.0729319
0.059666
0.046397
0.0331083
0.0198491
0.00647594
0.26269
0.24851
0.234482
0.220634
0.20693
0.193333
0.179818
0.166368
0.152969
0.139608
0.126274
0.112958
0.0996534
0.0863554
0.0730602
0.0597633
0.0464674
0.0331552
0.0198756
0.00648272
0.263729
0.249465
0.235331
0.221383
0.207589
0.193908
0.180315
0.166794
0.15333
0.139912
0.126527
0.113166
0.0998232
0.0864914
0.0731668
0.0598444
0.0465264
0.0331945
0.0198979
0.00648871
0.264505
0.250179
0.235967
0.221946
0.208085
0.194341
0.18069
0.167116
0.153605
0.140144
0.126721
0.113326
0.0999537
0.0865961
0.0732491
0.0599072
0.0465721
0.0332253
0.0199154
0.0064936
0.265028
0.250657
0.236392
0.222321
0.208416
0.194632
0.180942
0.167333
0.15379
0.1403
0.126851
0.113435
0.100042
0.0866673
0.0733052
0.0599501
0.0466034
0.0332464
0.0199274
0.00649787
0.265314
0.25091
0.236611
0.222512
0.208583
0.194778
0.181069
0.167442
0.153883
0.140379
0.126917
0.113489
0.100087
0.0867032
0.0733335
0.0599718
0.046619
0.0332574
0.0199321
0.00650454
0.379158
0.353198
0.329109
0.30704
0.287069
0.26918
0.253368
0.239418
0.22737
0.215677
0.387846
0.362665
0.339158
0.317398
0.297455
0.279287
0.262954
0.248084
0.235251
0.222612
0.39541
0.371004
0.34807
0.326646
0.306806
0.288487
0.271835
0.256406
0.24307
0.229759
0.40191
0.378139
0.355672
0.334537
0.314822
0.296451
0.27962
0.263845
0.250008
0.236233
0.407501
0.384274
0.362215
0.341352
0.321774
0.303403
0.28644
0.270427
0.256164
0.242135
0.412337
0.389591
0.367902
0.347297
0.327862
0.309527
0.292475
0.276317
0.261718
0.247498
0.416535
0.394218
0.372861
0.352497
0.333206
0.31493
0.297826
0.281577
0.266707
0.25232
0.420201
0.398255
0.377195
0.357055
0.337906
0.319702
0.302569
0.286261
0.271176
0.256643
0.42337
0.401775
0.380984
0.361055
0.342045
0.32392
0.306777
0.290429
0.275174
0.260511
0.426128
0.404838
0.3843
0.364568
0.345691
0.327646
0.310507
0.294132
0.278741
0.263957
0.428502
0.407498
0.387196
0.367648
0.348898
0.330933
0.313807
0.297411
0.281909
0.267011
0.43055
0.409805
0.389718
0.370341
0.351713
0.333825
0.316716
0.300304
0.284706
0.2697
0.432305
0.411794
0.391905
0.372686
0.354172
0.336357
0.319268
0.302841
0.287159
0.272046
0.433793
0.413494
0.393786
0.374715
0.356306
0.338559
0.32149
0.305048
0.289287
0.274069
0.435036
0.414929
0.395388
0.376451
0.358141
0.340457
0.323405
0.306945
0.29111
0.275786
0.436051
0.41612
0.39673
0.377917
0.359698
0.342069
0.325033
0.308551
0.292643
0.277211
0.436852
0.417079
0.397828
0.379127
0.36099
0.343411
0.326386
0.30988
0.293899
0.278356
0.437449
0.417819
0.398693
0.380093
0.362029
0.344493
0.327475
0.31094
0.294885
0.279228
0.437856
0.418356
0.399344
0.380837
0.362839
0.345338
0.328322
0.311753
0.295619
0.279843
0.438048
0.418672
0.39977
0.381354
0.363421
0.345956
0.328942
0.312339
0.296128
0.280228
0.688113
0.684469
0.677229
0.668132
0.657444
0.644608
0.628903
0.610272
0.591506
0.584173
0.659083
0.653043
0.64312
0.632024
0.619395
0.60421
0.585713
0.564033
0.542281
0.532795
0.627908
0.619812
0.608121
0.595355
0.580773
0.563223
0.542023
0.517517
0.493044
0.481671
0.594395
0.585019
0.572268
0.558171
0.54183
0.522117
0.498471
0.471507
0.444699
0.431777
0.560179
0.549786
0.536198
0.520941
0.503045
0.481438
0.455676
0.426691
0.398133
0.383991
0.526026
0.514744
0.500464
0.484209
0.464977
0.441774
0.414255
0.383543
0.354327
0.339144
0.492314
0.480301
0.4655
0.448447
0.42813
0.403681
0.374721
0.343005
0.313877
0.297843
0.459423
0.446837
0.431711
0.414083
0.392947
0.367552
0.337871
0.305798
0.27706
0.260566
0.427715
0.414712
0.399511
0.381527
0.359861
0.333965
0.304027
0.272186
0.244266
0.227695
0.397169
0.384427
0.369234
0.351084
0.329222
0.303227
0.2735
0.242448
0.215798
0.199462
0.879171
0.87843
0.878726
0.880146
0.882701
0.886333
0.890814
0.895576
0.900874
0.911731
0.875706
0.874648
0.874729
0.875905
0.878142
0.88138
0.885388
0.88959
0.894247
0.904712
0.868774
0.867105
0.866766
0.867457
0.869065
0.871523
0.87458
0.877666
0.881147
0.890717
0.858388
0.855852
0.854909
0.854891
0.855577
0.856891
0.858556
0.86001
0.861789
0.870034
0.844575
0.840966
0.839266
0.838332
0.83783
0.83767
0.83754
0.836896
0.836491
0.843042
0.827372
0.822545
0.81997
0.817946
0.816025
0.814106
0.811833
0.808688
0.805689
0.810238
0.806888
0.800747
0.797223
0.793969
0.790434
0.786517
0.781814
0.775843
0.769928
0.772238
0.783044
0.775613
0.771185
0.766637
0.76136
0.755278
0.747937
0.738908
0.72985
0.729766
0.756152
0.74753
0.742294
0.736347
0.729206
0.720847
0.710738
0.698515
0.686195
0.683647
0.724524
0.716628
0.710911
0.703477
0.694446
0.683784
0.670848
0.655382
0.639788
0.634793
0.995986
0.988075
0.980313
0.972623
0.964997
0.957463
0.950054
0.942792
0.935704
0.928811
0.922174
0.915836
0.909827
0.904183
0.898949
0.894175
0.889911
0.886213
0.883137
0.880736
0.995942
0.987947
0.980093
0.972307
0.964582
0.95695
0.949438
0.942071
0.934871
0.927852
0.921092
0.914621
0.908465
0.902659
0.897244
0.892267
0.887773
0.883812
0.880435
0.877675
0.995861
0.987688
0.979645
0.971667
0.963748
0.955918
0.948201
0.940621
0.933194
0.925946
0.918941
0.912198
0.905745
0.899613
0.893838
0.888455
0.883501
0.879013
0.875028
0.871544
0.995737
0.987299
0.978973
0.970707
0.962495
0.954359
0.946322
0.938405
0.930621
0.923064
0.915708
0.90857
0.90168
0.895065
0.888752
0.882763
0.87712
0.871839
0.866936
0.862336
0.995571
0.986779
0.978081
0.969441
0.960856
0.952345
0.94393
0.935619
0.927346
0.919307
0.911458
0.903785
0.89631
0.889053
0.882023
0.875227
0.868665
0.86232
0.856188
0.850056
0.99536
0.986123
0.976956
0.967836
0.958755
0.949725
0.94076
0.931837
0.923167
0.914611
0.906153
0.897822
0.889631
0.88158
0.873663
0.865863
0.858153
0.850474
0.842803
0.834708
0.995109
0.98535
0.975647
0.965985
0.956362
0.946785
0.937213
0.927748
0.91842
0.909155
0.899955
0.890832
0.88178
0.872782
0.863807
0.85481
0.845728
0.836441
0.826925
0.816397
0.994801
0.984404
0.974036
0.96371
0.953407
0.943054
0.932826
0.922747
0.912696
0.902651
0.892622
0.882601
0.872563
0.862467
0.852258
0.841854
0.831158
0.819971
0.808316
0.79494
0.994512
0.983521
0.972523
0.961433
0.950354
0.939432
0.928562
0.917673
0.906766
0.89584
0.88488
0.873857
0.862728
0.85143
0.83988
0.827953
0.815505
0.802208
0.788127
0.771189
0.994009
0.98201
0.970022
0.958159
0.946349
0.934537
0.922715
0.910878
0.899004
0.887065
0.875023
0.862826
0.850402
0.837655
0.824455
0.810619
0.795941
0.780005
0.762974
0.742085
0.993802
0.9814
0.96899
0.956568
0.944117
0.93163
0.919096
0.906492
0.893783
0.88093
0.867882
0.85457
0.840905
0.826765
0.811992
0.796367
0.779612
0.761196
0.740623
0.715447
0.993643
0.980921
0.968179
0.955413
0.942613
0.929762
0.916836
0.903807
0.890639
0.877286
0.863693
0.849789
0.835482
0.820654
0.805155
0.788782
0.771299
0.752332
0.731667
0.708621
0.993497
0.980471
0.967412
0.95432
0.941184
0.92798
0.914683
0.901259
0.887673
0.873877
0.859815
0.845417
0.830595
0.815242
0.799227
0.782384
0.764533
0.745442
0.724936
0.702677
0.993352
0.980023
0.966648
0.95323
0.939757
0.926201
0.912535
0.898726
0.884734
0.870513
0.856008
0.841151
0.825863
0.810048
0.793593
0.776368
0.75823
0.739023
0.718581
0.696727
0.993209
0.979586
0.965902
0.95217
0.938373
0.924485
0.910473
0.896304
0.881941
0.867336
0.852437
0.837182
0.821498
0.805303
0.788502
0.770991
0.752659
0.733397
0.713076
0.691613
0.993071
0.979165
0.965188
0.951156
0.937055
0.922855
0.908523
0.894027
0.879328
0.864382
0.849141
0.833547
0.817537
0.80104
0.783978
0.766269
0.747827
0.728577
0.708421
0.687311
0.99294
0.978765
0.964511
0.950197
0.935812
0.921322
0.906696
0.891901
0.876901
0.861655
0.846117
0.830237
0.813959
0.797223
0.779965
0.762121
0.743624
0.724425
0.704443
0.683652
0.992816
0.978389
0.963874
0.949299
0.934649
0.919893
0.904999
0.889935
0.874667
0.859157
0.843364
0.827242
0.810744
0.793819
0.776416
0.758483
0.73997
0.720843
0.701037
0.68054
0.992701
0.978038
0.963283
0.948465
0.933573
0.918575
0.903439
0.888134
0.872629
0.856889
0.840877
0.824552
0.807875
0.790803
0.773293
0.755306
0.736803
0.717761
0.69813
0.677907
0.992594
0.977715
0.96274
0.947701
0.932588
0.917371
0.902017
0.886499
0.870786
0.854847
0.838648
0.822155
0.805333
0.788146
0.77056
0.752545
0.73407
0.715121
0.695658
0.675687
0.992497
0.97742
0.962245
0.947007
0.931696
0.916283
0.900736
0.885029
0.869135
0.853025
0.836669
0.820036
0.803097
0.785822
0.768183
0.750158
0.731722
0.712867
0.693565
0.673823
0.992409
0.977155
0.961801
0.946384
0.930898
0.91531
0.899594
0.883723
0.867673
0.851416
0.834928
0.81818
0.801147
0.783805
0.766132
0.748108
0.729718
0.710956
0.691802
0.672267
0.99233
0.97692
0.961408
0.945834
0.930192
0.914454
0.89859
0.882577
0.866393
0.850013
0.833414
0.816572
0.799465
0.782073
0.764378
0.746365
0.728021
0.709348
0.690328
0.670976
0.992262
0.976715
0.961066
0.945355
0.92958
0.91371
0.89772
0.881587
0.86529
0.848807
0.832117
0.815199
0.798034
0.780605
0.762896
0.744898
0.726602
0.708009
0.689109
0.669916
0.992204
0.976539
0.960773
0.944948
0.929059
0.913079
0.896983
0.880749
0.864358
0.84779
0.831026
0.814047
0.796837
0.779381
0.761666
0.743686
0.725433
0.706911
0.688115
0.669059
0.992155
0.976394
0.960531
0.94461
0.928628
0.912557
0.896374
0.880058
0.863592
0.846956
0.830133
0.813106
0.795861
0.778386
0.760669
0.742706
0.724492
0.706031
0.687323
0.66838
0.992116
0.976278
0.960339
0.944341
0.928285
0.912143
0.895891
0.879511
0.862985
0.846296
0.829428
0.812365
0.795095
0.777606
0.75989
0.741942
0.723761
0.70535
0.686713
0.667861
0.992087
0.976191
0.960195
0.944141
0.928029
0.911834
0.895531
0.879104
0.862534
0.845807
0.828905
0.811817
0.794528
0.777031
0.759316
0.741381
0.723226
0.704854
0.68627
0.667487
0.992068
0.976134
0.9601
0.944008
0.92786
0.911629
0.895293
0.878834
0.862236
0.845483
0.82856
0.811455
0.794155
0.776652
0.758939
0.741013
0.722875
0.70453
0.685984
0.667247
0.992056
0.976106
0.960054
0.943943
0.927775
0.911527
0.895174
0.878699
0.862087
0.845321
0.828388
0.811275
0.793969
0.776464
0.758752
0.740831
0.722702
0.704371
0.685845
0.66714
0.687677
0.658101
0.628047
0.596219
0.563571
0.530945
0.498655
0.466994
0.436273
0.406855
0.68407
0.653407
0.623613
0.593576
0.562811
0.532013
0.501524
0.471569
0.44245
0.414537
0.6787
0.648903
0.620119
0.591777
0.562701
0.533424
0.504402
0.475856
0.448034
0.421192
0.673569
0.64513
0.617434
0.590411
0.562732
0.534747
0.506954
0.479575
0.452811
0.426897
0.669104
0.641928
0.615287
0.589338
0.562822
0.535943
0.509191
0.482796
0.456932
0.431807
0.665268
0.639214
0.61356
0.588508
0.562957
0.537021
0.511157
0.485598
0.460502
0.436053
0.661999
0.63693
0.612158
0.587859
0.563109
0.537976
0.512871
0.48803
0.463597
0.439726
0.65924
0.635022
0.61101
0.587342
0.563257
0.538808
0.514356
0.49013
0.46628
0.442997
0.656928
0.633434
0.610062
0.586919
0.56339
0.539521
0.515631
0.491931
0.468552
0.445613
0.654997
0.632111
0.609269
0.58656
0.563496
0.540121
0.516715
0.493478
0.470542
0.448053
0.653388
0.631009
0.608598
0.586245
0.563568
0.540613
0.517627
0.494793
0.472243
0.450099
0.652053
0.630088
0.608022
0.585956
0.5636
0.541002
0.518378
0.495897
0.473687
0.451862
0.650948
0.629314
0.607518
0.585679
0.563588
0.541292
0.51898
0.496809
0.474899
0.453359
0.650039
0.628659
0.607068
0.585406
0.56353
0.541488
0.519444
0.497543
0.475899
0.454614
0.649296
0.628101
0.606657
0.585127
0.563423
0.541592
0.519778
0.498112
0.476703
0.455646
0.648697
0.627622
0.606274
0.584835
0.563265
0.541607
0.519987
0.498525
0.477323
0.45647
0.648224
0.627208
0.60591
0.584527
0.563054
0.541535
0.520076
0.49879
0.47777
0.457098
0.647863
0.626851
0.605562
0.584203
0.562795
0.541381
0.520055
0.498916
0.478054
0.457541
0.647596
0.626529
0.605206
0.583841
0.562471
0.541135
0.519916
0.498904
0.47818
0.457812
0.647444
0.626263
0.604839
0.583411
0.562033
0.540741
0.519602
0.498697
0.478098
0.457863
)
;

boundaryField
{
    bottom
    {
        type            symmetryPlane;
    }
    right
    {
        type            fixedValue;
        value           uniform 0;
    }
    top
    {
        type            symmetryPlane;
    }
    left
    {
        type            fixedValue;
        value           uniform 1;
    }
    cylinder
    {
        type            zeroGradient;
    }
    defaultFaces
    {
        type            empty;
    }
}


// ************************************************************************* //
