/*--------------------------------*- C++ -*----------------------------------*\
| =========                 |                                                 |
| \\      /  F ield         | OpenFOAM: The Open Source CFD Toolbox           |
|  \\    /   O peration     | Version:  4.1                                   |
|   \\  /    A nd           | Web:      www.OpenFOAM.org                      |
|    \\/     M anipulation  |                                                 |
\*---------------------------------------------------------------------------*/
FoamFile
{
    version     2.0;
    format      ascii;
    class       volVectorField;
    location    "0.8";
    object      U;
}
// * * * * * * * * * * * * * * * * * * * * * * * * * * * * * * * * * * * * * //

dimensions      [0 1 -1 0 0 0 0];

internalField   nonuniform List<vector> 
2000
(
(0.0629389 -0.0537966 -3.49883e-20)
(0.132791 -0.1037 0)
(0.170186 -0.118756 -6.13532e-20)
(0.187614 -0.117156 -2.90314e-20)
(0.194641 -0.108548 5.35937e-20)
(0.196867 -0.0979746 7.46516e-20)
(0.197121 -0.0877438 -2.26959e-20)
(0.196617 -0.0786856 0)
(0.195489 -0.0713281 2.08121e-20)
(0.194326 -0.0657007 0)
(0.0720326 -0.0529226 1.70028e-20)
(0.149942 -0.101427 -1.71994e-20)
(0.189481 -0.115798 6.31982e-20)
(0.206336 -0.114033 8.89216e-20)
(0.211728 -0.105536 1.342e-21)
(0.212051 -0.0951704 -2.4616e-20)
(0.210485 -0.0851142 2.57017e-20)
(0.208402 -0.0761627 2.34751e-20)
(0.20599 -0.0690054 -2.08123e-20)
(0.203792 -0.0635584 -4.02324e-20)
(0.0809895 -0.0507138 -1.88251e-20)
(0.16663 -0.0965736 1.76339e-20)
(0.208121 -0.109885 -3.24258e-20)
(0.224346 -0.107991 1.49476e-21)
(0.22815 -0.0998079 -2.84578e-20)
(0.226697 -0.0899101 -2.66751e-20)
(0.223492 -0.0803184 -2.50165e-20)
(0.220032 -0.0717825 -2.34753e-20)
(0.216584 -0.0650056 -2.33417e-20)
(0.213527 -0.0598222 2.2021e-20)
(0.0896037 -0.0471981 -1.0874e-22)
(0.182458 -0.0892415 1.84857e-20)
(0.225654 -0.101173 0)
(0.241199 -0.0992146 -3.1105e-20)
(0.243481 -0.0915658 3.05858e-20)
(0.240373 -0.0824038 0)
(0.235655 -0.0735521 0)
(0.230907 -0.0656914 0)
(0.226453 -0.0594837 2.33418e-20)
(0.222608 -0.0546662 -4.40285e-20)
(0.097671 -0.0424341 -4.1837e-20)
(0.197043 -0.0795933 -5.92184e-22)
(0.241653 -0.0898793 -1.8718e-20)
(0.256479 -0.087942 -1.58808e-20)
(0.257331 -0.0810484 -1.65427e-20)
(0.25271 -0.0728752 -1.55785e-20)
(0.246627 -0.0650082 0)
(0.240713 -0.0580388 -1.38605e-20)
(0.235341 -0.0525537 6.38521e-20)
(0.230753 -0.0482132 -8.40306e-20)
(0.104993 -0.0365113 6.45264e-20)
(0.210024 -0.0678479 -3.84242e-22)
(0.255722 -0.0762852 3.79842e-20)
(0.269806 -0.0744682 -3.5521e-20)
(0.26935 -0.068539 5.05303e-20)
(0.263393 -0.0615829 -1.6331e-20)
(0.256121 -0.0549144 0)
(0.249202 -0.0490211 1.38606e-20)
(0.243044 -0.0443951 -1.30933e-20)
(0.237809 -0.0406566 -5.18549e-20)
(0.111383 -0.0295493 0)
(0.221076 -0.0542771 0)
(0.267515 -0.0607261 2.02458e-20)
(0.280852 -0.0591367 -1.88494e-20)
(0.279243 -0.0543622 1.78865e-20)
(0.272155 -0.0488206 -1.6793e-20)
(0.2639 -0.0435297 -3.18106e-20)
(0.256161 -0.0388658 3.00678e-20)
(0.249369 -0.0352124 2.84688e-20)
(0.243604 -0.0321934 -1.39179e-20)
(0.116672 -0.0216966 -1.22633e-20)
(0.229915 -0.039201 0)
(0.276739 -0.0435858 1.04244e-20)
(0.28935 -0.042333 -3.97883e-20)
(0.286769 -0.0388783 2.83079e-20)
(0.278782 -0.034913 0)
(0.269773 -0.0311421 0)
(0.261418 -0.0278267 0)
(0.254158 -0.0252335 3.00966e-20)
(0.247993 -0.0230343 -2.86047e-20)
(0.120711 -0.0131283 5.95513e-21)
(0.236312 -0.0229807 -1.70159e-22)
(0.283167 -0.0252877 1.08467e-20)
(0.295094 -0.0244755 -5.35506e-21)
(0.291751 -0.0224746 -4.78248e-21)
(0.28312 -0.0202076 -9.2831e-21)
(0.273601 -0.0180593 0)
(0.264846 -0.0161755 4.28646e-21)
(0.257292 -0.014701 1.99575e-20)
(0.250869 -0.0133987 -1.50959e-20)
(0.123385 -0.00404273 0)
(0.240103 -0.00600951 6.0792e-21)
(0.286639 -0.00628326 0)
(0.297946 -0.00600537 2.6014e-21)
(0.294076 -0.00555564 2.4356e-21)
(0.28507 -0.00506545 4.87291e-21)
(0.275297 -0.00460021 0)
(0.266367 -0.00419385 -4.28649e-21)
(0.258695 -0.00386709 -4.07353e-21)
(0.252167 -0.00351064 -3.98606e-21)
(0.0041084 -0.00399482 0)
(0.0175277 -0.00794187 3.20226e-21)
(0.0370094 -0.00923058 0)
(0.0555789 -0.00917864 4.08443e-21)
(0.0717824 -0.00852453 1.25158e-21)
(0.085513 -0.00767013 -2.2756e-21)
(0.0969876 -0.00681253 2.14302e-21)
(0.106547 -0.0060304 -1.94699e-21)
(0.114534 -0.00533996 -3.9213e-23)
(0.121233 -0.00471862 -1.6582e-21)
(0.00536608 -0.0119093 1.01199e-20)
(0.0200741 -0.0236396 -6.34205e-21)
(0.0400165 -0.0274764 5.9331e-21)
(0.0585935 -0.0273178 -2.71717e-21)
(0.0746122 -0.0253658 -1.25247e-20)
(0.0880932 -0.0228198 4.66692e-21)
(0.0993127 -0.0202655 0)
(0.108639 -0.0179359 1.94051e-21)
(0.116439 -0.0158778 1.77918e-21)
(0.122957 -0.0140291 0)
(0.00787614 -0.0195789 -6.74232e-21)
(0.0251232 -0.0387953 0)
(0.045956 -0.0450747 -1.78154e-20)
(0.0645544 -0.0447969 2.20061e-20)
(0.0802084 -0.0415811 -5.18301e-21)
(0.0931952 -0.0373965 0)
(0.103912 -0.0332011 0)
(0.112779 -0.0293745 0)
(0.120209 -0.0259885 -1.42623e-20)
(0.126376 -0.0229565 1.35557e-20)
(0.0115929 -0.02683 0)
(0.0325736 -0.0530701 1.30681e-20)
(0.0546995 -0.0616049 -2.41779e-20)
(0.0733242 -0.0611865 1.12389e-20)
(0.0884391 -0.0567665 -1.02463e-20)
(0.1007 -0.0510324 2.84666e-20)
(0.11068 -0.0452877 -4.37058e-22)
(0.118876 -0.0400457 -1.63712e-20)
(0.125759 -0.0353931 -1.4603e-20)
(0.131425 -0.0312386 2.08106e-20)
(0.016449 -0.0335061 -1.39485e-20)
(0.0422722 -0.0661323 2.67006e-20)
(0.0660542 -0.0766722 1.87948e-22)
(0.0846979 -0.0760891 -1.18642e-22)
(0.0991083 -0.0705514 -1.02539e-20)
(0.110432 -0.0633934 2.96066e-20)
(0.119468 -0.0562261 0)
(0.126803 -0.0496785 8.44105e-21)
(0.132985 -0.0438382 -7.7863e-21)
(0.138032 -0.0386309 2.78751e-20)
(0.0223564 -0.0394571 2.6687e-22)
(0.0540151 -0.0776695 -2.70185e-20)
(0.0797604 -0.0899107 -1.25123e-20)
(0.0984009 -0.0891424 -1.22568e-20)
(0.111952 -0.0826042 -1.07252e-20)
(0.122153 -0.0741874 -9.91015e-21)
(0.130071 -0.0657606 0)
(0.136389 -0.0580421 -8.44107e-21)
(0.141734 -0.0510989 -2.34497e-20)
(0.146058 -0.0448903 7.57302e-21)
(0.0292041 -0.0445406 1.00018e-22)
(0.067547 -0.0873958 -1.3925e-20)
(0.0954928 -0.100992 0)
(0.114089 -0.100029 2.33298e-20)
(0.126638 -0.0926449 -2.25509e-20)
(0.135559 -0.0831818 0)
(0.142225 -0.0737037 0)
(0.147423 -0.0649787 0)
(0.151845 -0.0570139 1.68927e-20)
(0.155401 -0.0498092 2.92985e-20)
(0.0368566 -0.0486248 1.53457e-20)
(0.0825609 -0.0950568 -1.43746e-20)
(0.112862 -0.109632 -2.74388e-20)
(0.131347 -0.108483 -9.05926e-22)
(0.142758 -0.100453 -2.37576e-20)
(0.150266 -0.0902202 -2.20823e-20)
(0.155586 -0.0799746 -2.05145e-20)
(0.159601 -0.0704747 -1.90548e-20)
(0.163032 -0.0615861 -1.68927e-20)
(0.165713 -0.0532904 1.56517e-20)
(0.0451535 -0.0515912 4.81065e-20)
(0.0987016 -0.100435 1.51766e-20)
(0.131421 -0.115591 5.60243e-20)
(0.149694 -0.114282 2.60924e-20)
(0.15982 -0.105847 -1.00328e-21)
(0.165784 -0.0951957 2.14182e-20)
(0.169679 -0.0845886 -2.20665e-20)
(0.172524 -0.0747194 1.90549e-20)
(0.175055 -0.0652071 -1.86261e-20)
(0.177041 -0.0558258 3.31275e-20)
(0.0539126 -0.0533397 -3.22093e-20)
(0.115579 -0.103355 0)
(0.150686 -0.118677 -2.84965e-20)
(0.168606 -0.117227 5.11469e-22)
(0.177263 -0.108625 -5.62496e-22)
(0.181467 -0.0979116 -2.38573e-20)
(0.183704 -0.0873973 6.56852e-20)
(0.185143 -0.07775 0)
(0.186494 -0.0685007 1.86262e-20)
(0.187902 -0.0589336 0)
(0.126884 -0.00414523 0)
(0.132152 -0.00361553 1.43116e-21)
(0.136798 -0.00312915 -2.8047e-21)
(0.140826 -0.00270513 1.20547e-21)
(0.144335 -0.00234138 0)
(0.147402 -0.00202918 -1.15872e-21)
(0.150084 -0.00176087 1.16446e-21)
(0.152429 -0.0015296 0)
(0.154478 -0.00132914 0)
(0.156264 -0.00115411 -1.12515e-22)
(0.157816 -0.000999975 0)
(0.159157 -0.000862784 0)
(0.160301 -0.000738834 0)
(0.161252 -0.000624661 0)
(0.162044 -0.000516002 1.10555e-22)
(0.162721 -0.000418054 -1.11128e-22)
(0.163287 -0.000329087 0)
(0.163742 -0.000247981 2.25337e-23)
(0.164103 -0.00017697 -2.26522e-23)
(0.164389 -0.000126044 0)
(0.128146 -0.0123551 0)
(0.133241 -0.010768 -3.72188e-22)
(0.137745 -0.00931263 0)
(0.14163 -0.00804806 -5.05988e-21)
(0.145018 -0.00696189 4.92978e-21)
(0.147991 -0.00602778 -3.03246e-22)
(0.150597 -0.00522382 2.17996e-21)
(0.152879 -0.00452996 -4.48385e-21)
(0.154877 -0.0039278 3.66422e-21)
(0.156623 -0.00340163 -1.9963e-21)
(0.158143 -0.00293833 -1.55406e-21)
(0.159459 -0.00252686 2.76597e-21)
(0.160586 -0.00215775 -1.39706e-21)
(0.161528 -0.00182099 -6.71927e-22)
(0.162308 -0.00150016 5.30487e-22)
(0.162965 -0.00121189 -1.00853e-22)
(0.163517 -0.000952419 -7.89006e-23)
(0.163961 -0.000717553 -9.00921e-23)
(0.164311 -0.000512416 9.05284e-23)
(0.164587 -0.000364973 -1.16428e-23)
(0.13067 -0.02032 3.96808e-22)
(0.135424 -0.0176884 3.72833e-22)
(0.139633 -0.0152895 3.6343e-22)
(0.14323 -0.0132222 0)
(0.146384 -0.011446 5.67186e-21)
(0.14917 -0.00991723 -4.43084e-21)
(0.151624 -0.00860215 0)
(0.153782 -0.00746763 5.35339e-22)
(0.155679 -0.00648319 2.45615e-22)
(0.157342 -0.00562301 -3.01304e-21)
(0.158795 -0.0048655 3.41817e-22)
(0.160055 -0.00419232 3.52665e-21)
(0.16114 -0.00358722 1.67175e-22)
(0.162062 -0.00303135 1.43036e-22)
(0.162817 -0.00250305 1.23856e-22)
(0.163433 -0.00202619 -2.58371e-22)
(0.16395 -0.00159416 2.47578e-22)
(0.164369 -0.00120053 2.71273e-22)
(0.164699 -0.00085432 5.72408e-23)
(0.164957 -0.000602793 1.25057e-25)
(0.13444 -0.0278517 1.22105e-20)
(0.138682 -0.0241947 -5.96035e-22)
(0.142415 -0.0208945 -9.78092e-22)
(0.145569 -0.0180725 -1.15122e-20)
(0.148371 -0.0156399 -1.00014e-21)
(0.150877 -0.0135415 -3.08521e-22)
(0.153105 -0.0117353 8.42975e-21)
(0.155079 -0.0101763 -5.12999e-21)
(0.156828 -0.00882309 -4.20122e-21)
(0.158371 -0.00764084 3.76876e-21)
(0.159729 -0.00660048 -3.47621e-22)
(0.160916 -0.0056773 -3.77101e-21)
(0.16195 -0.00484958 -1.65783e-22)
(0.162848 -0.00409702 -1.37328e-21)
(0.16357 -0.00340507 9.58109e-22)
(0.164136 -0.00274566 7.23992e-22)
(0.164613 -0.00215123 -6.43688e-22)
(0.165002 -0.00161631 0)
(0.165304 -0.00114731 -1.03545e-22)
(0.165533 -0.000805574 -1.15172e-23)
(0.139451 -0.0347794 -2.72969e-20)
(0.143016 -0.0301556 1.16699e-20)
(0.146083 -0.0260537 -1.25058e-20)
(0.148648 -0.0225721 0)
(0.150992 -0.019559 6.7258e-22)
(0.15313 -0.0169571 9.92839e-21)
(0.155057 -0.0147172 -9.13593e-23)
(0.156787 -0.0127814 -6.91226e-22)
(0.158336 -0.0110987 -8.59808e-21)
(0.159717 -0.009627 -4.66062e-22)
(0.160941 -0.008331 0)
(0.162019 -0.00718102 3.7987e-22)
(0.16296 -0.0061516 0)
(0.163779 -0.00522133 2.92181e-22)
(0.164482 -0.00436674 0)
(0.165023 -0.00353117 0)
(0.165424 -0.00276487 -1.58449e-22)
(0.165757 -0.00207287 1.83958e-22)
(0.16602 -0.00146221 -1.62113e-22)
(0.166215 -0.0010116 4.66198e-23)
(0.145606 -0.0408869 0)
(0.148307 -0.035359 8.20105e-22)
(0.150494 -0.0305556 2.47028e-20)
(0.152323 -0.0264776 -2.39349e-20)
(0.1541 -0.022919 7.22481e-22)
(0.155786 -0.0198394 0)
(0.157349 -0.0171863 9.56653e-21)
(0.158788 -0.0148926 -1.78301e-20)
(0.160103 -0.0129003 9.39168e-21)
(0.161295 -0.0111606 4.9487e-22)
(0.162366 -0.00963181 4.48395e-22)
(0.163322 -0.00827875 4.01692e-22)
(0.164169 -0.00707117 0)
(0.164922 -0.00598338 -1.92446e-21)
(0.165601 -0.00499424 4.35318e-21)
(0.166126 -0.00408469 -1.86046e-21)
(0.16648 -0.00318052 1.6575e-22)
(0.166758 -0.00236954 1.1844e-22)
(0.166978 -0.00166695 -4.66118e-23)
(0.167132 -0.00114741 4.70115e-23)
(0.152899 -0.0460022 -3.00687e-20)
(0.154576 -0.0397695 0)
(0.155721 -0.0345168 8.51349e-22)
(0.156705 -0.0300448 -1.57235e-21)
(0.157819 -0.026112 -1.4784e-21)
(0.158959 -0.0226949 -7.06905e-22)
(0.160075 -0.0197327 -6.58236e-22)
(0.16115 -0.017154 8.56385e-21)
(0.162169 -0.0149001 -1.02262e-20)
(0.16312 -0.0129211 -8.6175e-21)
(0.163996 -0.0111743 7.1563e-21)
(0.164792 -0.00962313 -8.09778e-22)
(0.165505 -0.00823618 2.65755e-21)
(0.166137 -0.00698715 -6.79478e-22)
(0.166701 -0.00585832 -2.79218e-21)
(0.167224 -0.00483763 -2.17773e-22)
(0.167579 -0.00385114 2.34052e-22)
(0.167758 -0.00286132 -3.03217e-22)
(0.167909 -0.00197932 -4.47343e-22)
(0.168023 -0.00132668 -2.41742e-23)
(0.160943 -0.0498008 0)
(0.161337 -0.0429558 2.89493e-20)
(0.161303 -0.0372732 -2.96771e-20)
(0.16138 -0.032348 8.06705e-22)
(0.161791 -0.027995 1.54839e-21)
(0.162369 -0.0242224 7.06298e-22)
(0.163035 -0.0209619 1.34215e-21)
(0.163747 -0.0181357 0)
(0.16447 -0.0156775 5.56083e-22)
(0.165179 -0.01353 5.0629e-22)
(0.165856 -0.0116443 4.76897e-22)
(0.16649 -0.00997884 8.32575e-22)
(0.167073 -0.00849792 0)
(0.167601 -0.00717067 0)
(0.168075 -0.00597149 2.6084e-22)
(0.168507 -0.00488668 1.98372e-21)
(0.168918 -0.00391971 -1.37782e-21)
(0.169181 -0.00297375 1.22198e-22)
(0.169263 -0.00206438 2.38315e-22)
(0.169298 -0.0013707 -7.23565e-23)
(0.17 -0.0524021 -3.45396e-20)
(0.168935 -0.045888 0)
(0.167779 -0.0405552 0)
(0.16691 -0.035711 2.69724e-20)
(0.166474 -0.0312869 -2.43322e-21)
(0.166333 -0.0273421 -4.82852e-20)
(0.166411 -0.0238508 2.24761e-20)
(0.166645 -0.02077 0)
(0.166982 -0.0180527 0)
(0.167379 -0.0156516 0)
(0.167804 -0.0135222 -2.22867e-22)
(0.168234 -0.0116242 -6.38768e-22)
(0.16865 -0.00992217 -5.58954e-21)
(0.169041 -0.00838447 5.38482e-21)
(0.169397 -0.0069838 -1.97069e-21)
(0.169714 -0.00569857 1.74114e-21)
(0.169989 -0.00452085 0)
(0.170234 -0.00346268 -5.61385e-23)
(0.170375 -0.00245098 -7.05443e-23)
(0.170364 -0.00161273 0)
(0.178886 -0.0524586 5.44964e-22)
(0.175382 -0.0450881 3.3013e-20)
(0.173475 -0.0390852 -3.26692e-20)
(0.172145 -0.0338735 0)
(0.171204 -0.0293094 -2.68145e-20)
(0.170572 -0.0253298 5.13502e-20)
(0.1702 -0.0218606 -2.45582e-20)
(0.170038 -0.018835 0)
(0.170033 -0.0161939 -9.49315e-21)
(0.170144 -0.0138853 1.79547e-20)
(0.170332 -0.0118634 -8.71552e-21)
(0.170568 -0.0100875 2.16474e-22)
(0.170829 -0.00852158 0)
(0.171097 -0.00713324 5.11853e-21)
(0.17136 -0.00589355 -6.95589e-21)
(0.171609 -0.00477705 2.02765e-21)
(0.171833 -0.00376291 1.20674e-21)
(0.172027 -0.00284273 -8.57075e-22)
(0.172183 -0.00204599 -3.9514e-22)
(0.172299 -0.00142633 0)
(0.191992 -0.0555344 0)
(0.18459 -0.0526535 0)
(0.180359 -0.047826 0)
(0.177753 -0.0425697 0)
(0.17592 -0.0375628 0)
(0.174615 -0.0330317 0)
(0.173714 -0.0289925 0)
(0.173116 -0.025398 0)
(0.172746 -0.0221918 0)
(0.172543 -0.0193224 0)
(0.172463 -0.0167451 0)
(0.17247 -0.0144209 0)
(0.172535 -0.0123154 0)
(0.172636 -0.0103975 0)
(0.172756 -0.00863963 0)
(0.172883 -0.0070176 0)
(0.173005 -0.00551117 0)
(0.173113 -0.00410723 0)
(0.173198 -0.00282216 0)
(0.173266 -0.00179589 0)
(0.196706 -0.0462642 0)
(0.190519 -0.0441704 0)
(0.185755 -0.0408106 0)
(0.182401 -0.0369405 0)
(0.179941 -0.0330418 0)
(0.178132 -0.0293622 0)
(0.176819 -0.0259875 0)
(0.175875 -0.0229241 0)
(0.175204 -0.0201504 0)
(0.174739 -0.0176381 0)
(0.174429 -0.015359 0)
(0.174235 -0.0132865 0)
(0.174125 -0.0113955 0)
(0.174075 -0.00966239 0)
(0.174067 -0.00806523 0)
(0.174085 -0.00658366 0)
(0.174118 -0.00520008 0)
(0.174155 -0.00390353 0)
(0.174189 -0.0027105 0)
(0.174217 -0.00175992 0)
(0.19916 -0.0405759 0)
(0.19387 -0.0391846 0)
(0.189443 -0.0368067 0)
(0.186036 -0.0338548 0)
(0.183364 -0.0307124 0)
(0.18129 -0.0276168 0)
(0.179708 -0.0246834 0)
(0.178506 -0.021954 0)
(0.177597 -0.0194348 0)
(0.176915 -0.0171173 0)
(0.176409 -0.0149872 0)
(0.176039 -0.0130278 0)
(0.175774 -0.0112218 0)
(0.175589 -0.00955151 0)
(0.175464 -0.00799957 0)
(0.175384 -0.00654929 0)
(0.175336 -0.0051858 0)
(0.175309 -0.00390058 0)
(0.175297 -0.00271263 0)
(0.17529 -0.00176264 0)
(0.200706 -0.0361622 0)
(0.196054 -0.0351274 0)
(0.1921 -0.0333068 0)
(0.188882 -0.0309854 0)
(0.186214 -0.0284372 0)
(0.184044 -0.0258458 0)
(0.182314 -0.0233187 0)
(0.180943 -0.02091 0)
(0.179861 -0.0186422 0)
(0.17901 -0.0165213 0)
(0.178345 -0.0145444 0)
(0.177829 -0.0127039 0)
(0.177433 -0.0109893 0)
(0.177131 -0.00938855 0)
(0.176904 -0.00788868 0)
(0.176737 -0.00647659 0)
(0.176617 -0.00514019 0)
(0.176534 -0.00387334 0)
(0.176479 -0.00269702 0)
(0.176442 -0.00175304 0)
(0.201851 -0.032151 0)
(0.197678 -0.0313555 0)
(0.194126 -0.0299267 0)
(0.191133 -0.0280838 0)
(0.188554 -0.0260177 0)
(0.186382 -0.0238633 0)
(0.184589 -0.0217105 0)
(0.18312 -0.0196136 0)
(0.181921 -0.0176022 0)
(0.180948 -0.015691 0)
(0.180162 -0.013885 0)
(0.179531 -0.0121834 0)
(0.179026 -0.0105817 0)
(0.178627 -0.00907251 0)
(0.178314 -0.00764692 0)
(0.178073 -0.00629514 0)
(0.177891 -0.00500784 0)
(0.177759 -0.00378116 0)
(0.177668 -0.00263748 0)
(0.177604 -0.00171706 0)
(0.202703 -0.0285117 0)
(0.198928 -0.0279297 0)
(0.195711 -0.0268155 0)
(0.192934 -0.0253483 0)
(0.190477 -0.0236685 0)
(0.188352 -0.0218778 0)
(0.186549 -0.0200502 0)
(0.185033 -0.0182354 0)
(0.183763 -0.0164646 0)
(0.182707 -0.0147567 0)
(0.181833 -0.0131215 0)
(0.181113 -0.0115632 0)
(0.180523 -0.0100813 0)
(0.180045 -0.00867251 0)
(0.179662 -0.00733124 0)
(0.179358 -0.00605063 0)
(0.179124 -0.0048239 0)
(0.178951 -0.00364923 0)
(0.178828 -0.00254992 0)
(0.17874 -0.00166262 0)
(0.203308 -0.0252225 0)
(0.199886 -0.0248227 0)
(0.196961 -0.0239629 0)
(0.194384 -0.0227948 0)
(0.19206 -0.0214269 0)
(0.190008 -0.0199383 0)
(0.188229 -0.0183898 0)
(0.186701 -0.0168253 0)
(0.185395 -0.0152749 0)
(0.184286 -0.0137584 0)
(0.18335 -0.0122887 0)
(0.182565 -0.0108726 0)
(0.181911 -0.00951296 0)
(0.181371 -0.00820926 0)
(0.180931 -0.00695866 0)
(0.180577 -0.00575677 0)
(0.1803 -0.00459901 0)
(0.180091 -0.00348531 0)
(0.179943 -0.00243936 0)
(0.179835 -0.00159271 0)
(0.203712 -0.0222444 0)
(0.200612 -0.0219898 0)
(0.197946 -0.0213341 0)
(0.195554 -0.0204066 0)
(0.193363 -0.0192932 0)
(0.191397 -0.0180571 0)
(0.189664 -0.0167483 0)
(0.188147 -0.0154047 0)
(0.186829 -0.014054 0)
(0.185692 -0.0127158 0)
(0.184717 -0.0114039 0)
(0.183887 -0.010127 0)
(0.183185 -0.00888968 0)
(0.182598 -0.00769366 0)
(0.182113 -0.00653818 0)
(0.181719 -0.00542084 0)
(0.181407 -0.00433888 0)
(0.18117 -0.00329365 0)
(0.181 -0.00230873 0)
(0.180875 -0.00150929 0)
(0.203958 -0.0195453 0)
(0.201152 -0.0194016 0)
(0.198716 -0.0189083 0)
(0.196495 -0.0181751 0)
(0.194434 -0.0172707 0)
(0.19256 -0.0162462 0)
(0.190884 -0.015143 0)
(0.189395 -0.0139936 0)
(0.188083 -0.0128227 0)
(0.186936 -0.0116489 0)
(0.185939 -0.0104858 0)
(0.185079 -0.00934285 0)
(0.184344 -0.00822599 0)
(0.183723 -0.00713823 0)
(0.183204 -0.00608035 0)
(0.182778 -0.0050515 0)
(0.182439 -0.00405037 0)
(0.182179 -0.00307938 0)
(0.181991 -0.00216157 0)
(0.181852 -0.00141467 0)
(0.204087 -0.0170953 0)
(0.201545 -0.0170332 0)
(0.199315 -0.0166678 0)
(0.197249 -0.0160913 0)
(0.195312 -0.0153589 0)
(0.193531 -0.014512 0)
(0.191918 -0.0135852 0)
(0.190468 -0.0126061 0)
(0.189174 -0.0115964 0)
(0.188029 -0.010573 0)
(0.187023 -0.00954906 0)
(0.186147 -0.00853399 0)
(0.18539 -0.00753428 0)
(0.184744 -0.00655383 0)
(0.1842 -0.00559446 0)
(0.183751 -0.00465646 0)
(0.18339 -0.00373963 0)
(0.183113 -0.00284714 0)
(0.182911 -0.00200112 0)
(0.18276 -0.00131095 0)
(0.204129 -0.014865 0)
(0.201825 -0.0148605 0)
(0.199776 -0.0145945 0)
(0.197852 -0.0141442 0)
(0.19603 -0.0135534 0)
(0.194339 -0.012856 0)
(0.192791 -0.0120807 0)
(0.191384 -0.0112509 0)
(0.190117 -0.0103854 0)
(0.188983 -0.00949933 0)
(0.187978 -0.00860481 0)
(0.187094 -0.00771095 0)
(0.186325 -0.00682429 0)
(0.185663 -0.00594918 0)
(0.185101 -0.0050881 0)
(0.184635 -0.0042421 0)
(0.184258 -0.00341183 0)
(0.183967 -0.0026009 0)
(0.183754 -0.00183017 0)
(0.183594 -0.00119999 0)
(0.204113 -0.0128262 0)
(0.202018 -0.0128603 0)
(0.200129 -0.0126709 0)
(0.19833 -0.0123216 0)
(0.196614 -0.0118475 0)
(0.195008 -0.0112761 0)
(0.193524 -0.0106312 0)
(0.192163 -0.00993252 0)
(0.190926 -0.00919612 0)
(0.189809 -0.00843535 0)
(0.188811 -0.00766104 0)
(0.187927 -0.00688169 0)
(0.187152 -0.00610361 0)
(0.18648 -0.00533125 0)
(0.185907 -0.00456744 0)
(0.185429 -0.00381374 0)
(0.185041 -0.00307132 0)
(0.184739 -0.00234401 0)
(0.184518 -0.00165111 0)
(0.184352 -0.0010834 0)
(0.204058 -0.0109528 0)
(0.202146 -0.0110107 0)
(0.200395 -0.0108792 0)
(0.198707 -0.0106108 0)
(0.197087 -0.010233 0)
(0.195559 -0.00976815 0)
(0.194135 -0.00923594 0)
(0.19282 -0.00865275 0)
(0.191614 -0.00803223 0)
(0.190518 -0.00738589 0)
(0.189532 -0.00672326 0)
(0.188652 -0.00605198 0)
(0.187875 -0.00537794 0)
(0.187199 -0.00470544 0)
(0.186619 -0.00403739 0)
(0.186133 -0.00337563 0)
(0.185736 -0.00272164 0)
(0.185427 -0.00207924 0)
(0.1852 -0.00146594 0)
(0.185029 -0.000962526 0)
(0.203982 -0.00922008 0)
(0.202227 -0.0092906 0)
(0.200594 -0.00920259 0)
(0.199003 -0.00899869 0)
(0.197466 -0.00870056 0)
(0.196008 -0.00832622 0)
(0.19464 -0.00789186 0)
(0.193367 -0.00741098 0)
(0.192193 -0.00689495 0)
(0.191118 -0.00635351 0)
(0.190145 -0.00579487 0)
(0.189273 -0.00522573 0)
(0.188498 -0.00465137 0)
(0.187821 -0.00407574 0)
(0.187238 -0.00350169 0)
(0.186746 -0.00293111 0)
(0.186344 -0.00236562 0)
(0.18603 -0.00180885 0)
(0.185799 -0.00127631 0)
(0.185624 -0.000838479 0)
(0.203895 -0.0076058 0)
(0.202274 -0.0076806 0)
(0.20074 -0.00762455 0)
(0.199231 -0.00747204 0)
(0.197767 -0.00724009 0)
(0.19637 -0.00694319 0)
(0.195051 -0.00659445 0)
(0.193817 -0.00620485 0)
(0.192671 -0.00578367 0)
(0.191618 -0.00533896 0)
(0.190659 -0.00487761 0)
(0.189795 -0.00440528 0)
(0.189025 -0.00392656 0)
(0.188349 -0.00344496 0)
(0.187764 -0.00296305 0)
(0.18727 -0.00248268 0)
(0.186865 -0.00200541 0)
(0.186548 -0.00153458 0)
(0.186313 -0.00108352 0)
(0.186135 -0.000712155 0)
(0.203809 -0.00608931 0)
(0.202298 -0.00616237 0)
(0.200846 -0.0061293 0)
(0.199405 -0.0060177 0)
(0.198001 -0.00584108 0)
(0.196656 -0.00561104 0)
(0.195379 -0.00533801 0)
(0.194178 -0.00503067 0)
(0.193059 -0.00469637 0)
(0.192025 -0.00434156 0)
(0.191079 -0.00397178 0)
(0.190224 -0.00359169 0)
(0.189459 -0.00320506 0)
(0.188784 -0.00281486 0)
(0.1882 -0.00242334 0)
(0.187705 -0.00203211 0)
(0.187298 -0.00164263 0)
(0.186978 -0.00125776 0)
(0.186742 -0.000888566 0)
(0.186562 -0.000584248 0)
(0.203729 -0.00465253 0)
(0.202308 -0.00471904 0)
(0.200921 -0.00470165 0)
(0.199534 -0.00462253 0)
(0.198179 -0.00449263 0)
(0.196875 -0.0043211 0)
(0.195632 -0.00411595 0)
(0.194459 -0.00388371 0)
(0.193361 -0.00362994 0)
(0.192343 -0.00335951 0)
(0.19141 -0.00307666 0)
(0.190562 -0.00278499 0)
(0.189802 -0.00248746 0)
(0.189131 -0.00218642 0)
(0.188547 -0.00188369 0)
(0.188052 -0.00158061 0)
(0.187644 -0.00127839 0)
(0.187323 -0.00097935 0)
(0.187085 -0.000692191 0)
(0.186905 -0.000455295 0)
(0.203668 -0.00327709 0)
(0.202314 -0.00333418 0)
(0.200974 -0.00332648 0)
(0.199627 -0.00327311 0)
(0.198307 -0.00318334 0)
(0.197034 -0.00306409 0)
(0.195817 -0.00292098 0)
(0.194665 -0.00275849 0)
(0.193583 -0.00258043 0)
(0.192578 -0.00239015 0)
(0.191654 -0.00219064 0)
(0.190813 -0.00198442 0)
(0.190058 -0.00177361 0)
(0.189389 -0.00155992 0)
(0.188807 -0.00134467 0)
(0.188311 -0.00112886 0)
(0.187903 -0.000913405 0)
(0.187582 -0.000700001 0)
(0.187343 -0.000494926 0)
(0.187162 -0.000325735 0)
(0.203629 -0.00195725 0)
(0.202323 -0.00199365 0)
(0.201014 -0.00198821 0)
(0.199691 -0.00195515 0)
(0.198393 -0.00190107 0)
(0.197139 -0.00183006 0)
(0.195939 -0.00174517 0)
(0.1948 -0.00164885 0)
(0.19373 -0.0015432 0)
(0.192734 -0.00143016 0)
(0.191816 -0.00131145 0)
(0.19098 -0.00118857 0)
(0.190228 -0.00106278 0)
(0.18956 -0.000935111 0)
(0.188979 -0.000806369 0)
(0.188484 -0.00067717 0)
(0.188076 -0.000548079 0)
(0.187754 -0.000420116 0)
(0.187515 -0.000297105 0)
(0.187334 -0.000195921 0)
(0.203657 -0.000632401 0)
(0.202354 -0.00066046 0)
(0.201047 -0.000661681 0)
(0.199728 -0.000650736 0)
(0.198438 -0.000632472 0)
(0.197192 -0.00060873 0)
(0.196 -0.000580511 0)
(0.194867 -0.000548558 0)
(0.193803 -0.000513526 0)
(0.192811 -0.000476027 0)
(0.191897 -0.000436621 0)
(0.191063 -0.000395804 0)
(0.190312 -0.000353993 0)
(0.189646 -0.000311533 0)
(0.189066 -0.000268691 0)
(0.188571 -0.000225677 0)
(0.188163 -0.000182681 0)
(0.187841 -0.000140037 0)
(0.187601 -9.90421e-05 0)
(0.18742 -6.5493e-05 0)
(0.246864 -0.00258134 3.89391e-21)
(0.245893 -0.0100181 0)
(0.243736 -0.0173118 -8.54055e-22)
(0.240438 -0.024316 -2.59012e-20)
(0.236073 -0.0308819 5.05023e-20)
(0.230741 -0.03686 0)
(0.224564 -0.0420989 4.55104e-20)
(0.217628 -0.0464424 0)
(0.210378 -0.049743 4.19398e-20)
(0.200312 -0.051744 -6.34452e-22)
(0.242037 -0.00228228 -3.93146e-21)
(0.241178 -0.00886527 9.09578e-22)
(0.239269 -0.0153158 -9.1119e-22)
(0.23636 -0.0215136 -1.84252e-22)
(0.232526 -0.0273391 -2.41255e-20)
(0.227868 -0.0326743 -1.56197e-21)
(0.222508 -0.0374006 0)
(0.216563 -0.0414043 -4.41037e-20)
(0.210721 -0.0445741 0)
(0.201006 -0.0463853 -3.99984e-20)
(0.237987 -0.00202069 7.90881e-21)
(0.237237 -0.00766368 0)
(0.235591 -0.013202 -8.71498e-22)
(0.233096 -0.0185378 7.18519e-22)
(0.22982 -0.0235763 2.57202e-20)
(0.225855 -0.0282274 0)
(0.221303 -0.0324062 4.52935e-20)
(0.216234 -0.0360444 4.53261e-20)
(0.211487 -0.0391138 0)
(0.202662 -0.0411679 3.95837e-20)
(0.234554 -0.00176441 -3.49177e-21)
(0.233897 -0.00662797 1.47052e-20)
(0.232469 -0.0114056 0)
(0.230313 -0.0160211 2.73497e-20)
(0.227491 -0.0204014 1.58277e-21)
(0.224082 -0.0244794 -3.08614e-21)
(0.220174 -0.0281934 -4.36809e-20)
(0.215804 -0.0314927 -1.42761e-21)
(0.211845 -0.0343499 -4.23814e-20)
(0.204004 -0.0365478 0)
(0.231612 -0.00154867 0)
(0.23103 -0.00575548 -1.43283e-20)
(0.229778 -0.0098926 -1.63818e-20)
(0.227896 -0.0138995 2.56841e-21)
(0.225437 -0.0177192 -1.68242e-21)
(0.222476 -0.0212999 -1.5114e-21)
(0.219087 -0.0245956 -4.43126e-20)
(0.215285 -0.0275688 -2.78868e-21)
(0.211903 -0.0301757 9.62944e-22)
(0.205036 -0.0323487 4.0169e-20)
(0.229074 -0.00135789 4.03468e-21)
(0.228553 -0.00500144 9.38718e-22)
(0.227445 -0.00858807 -1.87501e-21)
(0.225784 -0.0120698 8.91786e-22)
(0.223619 -0.0154018 -2.64546e-20)
(0.221017 -0.0185437 0)
(0.218045 -0.0214607 4.85959e-20)
(0.21471 -0.0241248 -1.43774e-21)
(0.211754 -0.0264784 8.468e-20)
(0.205766 -0.0285432 -7.98939e-20)
(0.226871 -0.0011893 -4.05456e-21)
(0.226402 -0.0043472 -7.75018e-21)
(0.225409 -0.00745854 1.47227e-20)
(0.223926 -0.010485 -2.63504e-20)
(0.221998 -0.0133911 -1.81759e-21)
(0.219684 -0.0161448 -2.51975e-20)
(0.217045 -0.018719 1.44555e-21)
(0.21409 -0.0210925 -2.80571e-21)
(0.211455 -0.0232034 -4.08497e-20)
(0.20623 -0.0251184 3.97285e-20)
(0.224956 -0.0010398 0)
(0.224528 -0.0037756 1.65367e-20)
(0.223629 -0.00647332 -1.85512e-21)
(0.22229 -0.00910219 1.49281e-20)
(0.220551 -0.0116338 -1.03549e-22)
(0.218468 -0.0140423 4.8968e-20)
(0.216095 -0.0163067 -2.23734e-20)
(0.213449 -0.01841 0)
(0.211058 -0.0202933 0)
(0.206481 -0.0220415 0)
(0.223289 -0.000906587 0)
(0.222896 -0.00327279 -1.47242e-20)
(0.222073 -0.00560788 -9.55256e-22)
(0.220849 -0.00788709 1.41553e-20)
(0.219263 -0.0100875 2.67987e-20)
(0.217365 -0.0121883 -2.68533e-20)
(0.215204 -0.0141727 2.68423e-20)
(0.212807 -0.0160268 -1.44444e-21)
(0.210603 -0.0176994 0)
(0.206572 -0.0192773 1.98982e-20)
(0.221842 -0.00078728 5.05062e-22)
(0.221476 -0.0028275 8.34345e-21)
(0.220715 -0.00484246 1.31573e-20)
(0.219585 -0.00681218 -8.27221e-22)
(0.218122 -0.00871814 1.72791e-21)
(0.216372 -0.0105436 -2.70557e-20)
(0.214381 -0.0122749 2.70137e-20)
(0.212183 -0.0139005 -1.44491e-21)
(0.210122 -0.0153783 0)
(0.206547 -0.0167898 -3.95157e-20)
(0.220589 -0.000679822 0)
(0.220247 -0.00243042 7.9405e-21)
(0.219536 -0.00416072 2.62819e-23)
(0.218481 -0.00585466 0)
(0.217117 -0.00749734 0)
(0.215486 -0.00907519 2.3944e-20)
(0.213631 -0.0105774 -2.24262e-20)
(0.211591 -0.0119938 -1.37108e-21)
(0.209637 -0.0132917 7.11738e-22)
(0.206442 -0.0145438 2.02516e-20)
(0.219512 -0.000582423 0)
(0.219189 -0.00207373 -1.4988e-20)
(0.218518 -0.00354901 -1.70809e-20)
(0.217525 -0.00499548 2.68034e-21)
(0.21624 -0.00640122 -1.74222e-21)
(0.214704 -0.00775534 -1.56215e-21)
(0.212957 -0.00904919 3.00681e-21)
(0.21104 -0.0102739 1.97346e-20)
(0.209167 -0.0114054 1.98841e-21)
(0.206287 -0.0125061 -6.28444e-22)
(0.218594 -0.00049352 0)
(0.218286 -0.00175081 8.02395e-21)
(0.217648 -0.00299578 -9.33555e-22)
(0.216704 -0.00421845 9.2579e-22)
(0.215483 -0.00540944 0)
(0.214022 -0.00656011 0)
(0.21236 -0.00766361 0)
(0.21054 -0.00871214 -2.24498e-20)
(0.208725 -0.00968888 2.09856e-20)
(0.206105 -0.010646 0)
(0.217821 -0.000411739 0)
(0.217525 -0.00145596 5.02588e-21)
(0.216914 -0.00249113 6.70277e-21)
(0.216009 -0.00350968 9.05439e-21)
(0.214838 -0.00450442 -1.75494e-21)
(0.213437 -0.00546866 1.13208e-20)
(0.211841 -0.00639708 -1.05176e-20)
(0.210094 -0.0072829 0)
(0.208321 -0.00811502 6.98335e-22)
(0.205913 -0.00893594 -1.99844e-20)
(0.217181 -0.000335854 -1.06202e-21)
(0.216894 -0.00118425 -4.05746e-21)
(0.216305 -0.00202649 -8.65888e-21)
(0.215431 -0.00285711 -6.36524e-21)
(0.2143 -0.00367085 0)
(0.212945 -0.00446277 -1.44638e-20)
(0.211401 -0.00522885 1.50491e-20)
(0.209708 -0.0059634 -1.43784e-21)
(0.207962 -0.00665954 -1.03534e-20)
(0.205726 -0.00735066 2.87957e-20)
(0.216664 -0.000264813 1.06749e-21)
(0.216385 -0.000931442 -3.0837e-21)
(0.215812 -0.00159443 2.89024e-21)
(0.214963 -0.00225019 -7.34164e-21)
(0.213863 -0.00289517 0)
(0.212543 -0.00352601 0)
(0.211037 -0.00413994 1.46945e-21)
(0.209384 -0.00473253 -1.39991e-20)
(0.207655 -0.00529991 -9.00856e-21)
(0.205554 -0.00586709 -9.52502e-21)
(0.216259 -0.000197327 0)
(0.215986 -0.000693702 5.10673e-21)
(0.215427 -0.00118869 -1.94622e-21)
(0.214597 -0.00168033 6.50411e-21)
(0.213521 -0.00216661 1.77155e-21)
(0.212228 -0.00264561 -1.58022e-21)
(0.210749 -0.00311572 3.01326e-21)
(0.209123 -0.0035739 9.72052e-21)
(0.207404 -0.00401839 0)
(0.205405 -0.00446653 0)
(0.215956 -0.000133358 0)
(0.215688 -0.000466549 2.0632e-21)
(0.215139 -0.000800199 -3.91645e-21)
(0.214324 -0.00113379 0)
(0.213266 -0.00146681 -3.47438e-21)
(0.211994 -0.00179889 -1.58259e-21)
(0.210536 -0.00213006 -4.48348e-21)
(0.208929 -0.00245938 -1.35654e-21)
(0.207215 -0.0027872 6.91824e-22)
(0.205289 -0.00312463 6.03416e-22)
(0.215747 -7.21104e-05 0)
(0.215482 -0.000262509 -2.07319e-21)
(0.21494 -0.000454265 -1.94787e-21)
(0.214137 -0.000647475 2.76502e-21)
(0.213093 -0.000842054 1.69857e-21)
(0.211836 -0.00103788 1.62391e-21)
(0.210394 -0.00123514 7.48139e-21)
(0.2088 -0.00143397 -5.55377e-21)
(0.207089 -0.00163704 1.30848e-21)
(0.20521 -0.00185468 0)
(0.215599 3.19179e-07 0)