/*--------------------------------*- C++ -*----------------------------------*\
| =========                 |                                                 |
| \\      /  F ield         | OpenFOAM: The Open Source CFD Toolbox           |
|  \\    /   O peration     | Version:  4.1                                   |
|   \\  /    A nd           | Web:      www.OpenFOAM.org                      |
|    \\/     M anipulation  |                                                 |
\*---------------------------------------------------------------------------*/
FoamFile
{
    version     2.0;
    format      ascii;
    class       surfaceScalarField;
    location    "9.9";
    object      phi;
}
// * * * * * * * * * * * * * * * * * * * * * * * * * * * * * * * * * * * * * //

dimensions      [0 3 -1 0 0 0 0];

internalField   nonuniform List<scalar> 
3890
(
0.000194019
0.00247888
-0.0026729
0.00192335
0.00159062
-0.00331995
0.00596881
-0.00323849
-0.000806983
0.012795
-0.0108973
0.00407106
0.0223451
-0.0202053
0.0106553
0.034037
-0.0299252
0.0182333
0.04697
-0.0390417
0.0261086
0.0603853
-0.0469591
0.0335439
0.0735027
-0.0537388
0.0406215
-0.0582277
0.0463951
0.0853352
0.00045666
0.00202222
0.00315623
-0.00110895
0.00896183
-0.00904408
0.0180104
-0.0199458
0.0295506
-0.0317456
0.0423376
-0.0427122
0.055169
-0.0518731
0.0672139
-0.059004
0.0777031
-0.0642281
-0.067779
0.0872545
0.000848476
0.00117374
0.00479577
-0.00505624
0.0125223
-0.0167706
0.0233666
-0.0307901
0.0357083
-0.0440872
0.047928
-0.054932
0.0589719
-0.0629169
0.0683812
-0.0684134
0.0762509
-0.0720977
-0.0746156
0.0830874
0.00136387
-0.000190134
0.00673951
-0.0104319
0.0161428
-0.0261739
0.0277632
-0.0424105
0.0394267
-0.0557507
0.0497391
-0.0652444
0.0582388
-0.0714165
0.0651235
-0.0752981
0.0708659
-0.0778401
-0.0796908
0.0759411
0.00198541
-0.00217555
0.00877336
-0.0172198
0.0191357
-0.0365363
0.0302737
-0.0535485
0.0401551
-0.0656321
0.0480806
-0.0731699
0.0542573
-0.0775932
0.0592418
-0.0802826
0.0635765
-0.0821748
-0.083845
0.0677308
0.00268483
-0.00486037
0.010572
-0.025107
0.0209014
-0.0468656
0.0305815
-0.0632286
0.0382769
-0.0733275
0.0440169
-0.0789099
0.0483916
-0.081968
0.0520209
-0.0839119
0.0553618
-0.0855158
-0.0870978
0.0586146
0.00338466
-0.00824503
0.0117921
-0.0335145
0.0211959
-0.0562694
0.0289634
-0.0709961
0.0345693
-0.0789335
0.0385188
-0.0828594
0.0415155
-0.0849647
0.0440969
-0.0864933
0.0465557
-0.0879746
-0.0895577
0.0490156
0.00397207
-0.0122171
0.0122134
-0.0417558
0.0201398
-0.0641958
0.0259419
-0.0767982
0.0297331
-0.0827246
0.0322433
-0.0853696
0.0341347
-0.0868561
0.0358062
-0.0881647
0.0374352
-0.0896035
-0.0911879
0.0390653
0.00433278
-0.0165499
0.0117972
-0.0492202
0.0180334
-0.0704321
0.0220191
-0.0807839
0.0242832
-0.0849888
0.025609
-0.0866954
0.0265455
-0.0877926
0.0273641
-0.0889834
0.0281512
-0.0903906
-0.0919601
0.0289235
0.00439731
-0.0209472
0.0106902
-0.055513
0.0152171
-0.0749589
0.0175969
-0.0831637
0.0185747
-0.0859666
0.0188806
-0.0870013
0.018937
-0.0878489
0.0189151
-0.0889616
0.0188562
-0.0903317
0.01876
-0.091864
-0.000849773
0.000849773
-0.0025234
0.00167363
-0.00461701
0.0020936
-0.0069308
0.00231379
-0.00937012
0.00243932
-0.0118992
0.00252906
-0.0145144
0.00261526
-0.01723
0.00271558
-0.0200744
0.00284434
0.00301845
-0.0230928
-0.000748881
0.00159865
-0.0022413
0.00316605
-0.00411003
0.00396233
-0.00615313
0.0043569
-0.00826435
0.00455054
-0.0103925
0.00465716
-0.012518
0.00474077
-0.0146414
0.00483902
-0.0167785
0.0049814
0.00521134
-0.0189714
-0.000571998
0.00217065
-0.00174758
0.00434164
-0.00321185
0.00542659
-0.00476941
0.00591446
-0.00629978
0.00608091
-0.00772768
0.00608505
-0.00900617
0.00601927
-0.0101107
0.00594359
-0.011034
0.00590469
0.00597095
-0.0117936
-0.00036634
0.00253699
-0.00115328
0.00512857
-0.00211022
0.00638353
-0.00305595
0.0068602
-0.00386189
0.00688685
-0.004432
0.00665517
-0.00468863
0.00627589
-0.00457281
0.00582777
-0.00404189
0.00537377
0.00502805
-0.00309899
-0.00018001
0.002717
-0.000579797
0.00552836
-0.00100491
0.00680864
-0.00129248
0.00714777
-0.00131382
0.00690819
-0.000961158
0.00630251
-0.000134775
0.00544951
0.00126708
0.00442592
0.00333683
0.00330402
0.00221192
0.00615296
-4.98211e-05
0.00276682
-0.000118138
0.00559668
-4.21914e-05
0.0067327
0.000334719
0.00677086
0.00114822
0.00609469
0.0025206
0.00493012
0.00457189
0.00339823
0.00741761
0.00158019
0.0111416
-0.000419991
-0.0028335
0.016187
9.87977e-06
0.00275694
0.000192981
0.00541358
0.00073471
0.00619097
0.00181315
0.00569242
0.00359688
0.00431096
0.00624767
0.00227932
0.00990703
-0.000261131
0.0147044
-0.00321715
0.0205826
-0.00629817
-0.0105906
0.0283397
1.58353e-05
0.00274111
0.000407332
0.00502208
0.00144222
0.00515608
0.00336759
0.00376704
0.00642409
0.00125447
0.0108248
-0.00212143
0.0167155
-0.00615177
0.0241264
-0.010628
0.0328642
-0.015036
-0.0212931
0.0435666
1.29493e-05
0.00272816
0.000656837
0.00437819
0.00234569
0.00346723
0.00544223
0.000670505
0.0102618
-0.00356511
0.0169883
-0.00884798
0.0256312
-0.0147946
0.0359291
-0.0209259
0.0477314
-0.0268383
-0.0339276
0.0603659
5.52597e-05
0.0011135
0.00377375
0.00851532
0.0156055
0.0249908
0.0363048
0.0489227
0.062706
0.0751735
-0.0250605
0.00196765
-0.0270131
0.00195268
-0.0289247
0.00191162
-0.0307847
0.00185994
-0.0325787
0.00179403
-0.0342889
0.00171017
-0.035894
0.00160513
-0.0373703
0.00147632
-0.0386921
0.00132177
-0.0398313
0.00113926
-0.0407592
0.000927852
-0.041447
0.00068783
-0.0418668
0.000419811
-0.0419895
0.000122685
-0.0418095
-0.000180033
-0.0413327
-0.000476824
-0.0405752
-0.000757453
-0.0395648
-0.00101043
-0.0383268
-0.00123794
-0.0014052
-0.0206604
0.00365665
-0.0223591
0.00365136
-0.0240381
0.00359066
-0.0256893
0.00351118
-0.0273023
0.00340699
-0.0288631
0.00327095
-0.0303547
0.00309675
-0.0317573
0.00287887
-0.0330485
0.002613
-0.0342055
0.00229623
-0.0352023
0.00192466
-0.0360108
0.00149637
-0.0366024
0.00101136
-0.0369502
0.000470519
-0.0370145
-0.000115759
-0.0368064
-0.000684924
-0.036321
-0.00124283
-0.0355762
-0.00175527
-0.0346075
-0.00220656
-0.00252596
-0.012976
0.00483905
-0.0141964
0.00487174
-0.0154324
0.0048267
-0.0166755
0.0047542
-0.0179191
0.0046506
-0.0191551
0.00450697
-0.0203727
0.00431439
-0.0215589
0.00406502
-0.0226983
0.00375243
-0.0237735
0.00337144
-0.0247675
0.00291866
-0.0256612
0.00239008
-0.0264296
0.00177971
-0.0270467
0.00108768
-0.0274756
0.000313135
-0.0276745
-0.0004861
-0.0276387
-0.00127856
-0.0273547
-0.00203929
-0.0268429
-0.00271837
-0.00319683
-0.00359762
0.00533768
-0.00420761
0.00548173
-0.00486635
0.00548544
-0.00555746
0.00544531
-0.00628201
0.00537515
-0.00703778
0.00526274
-0.00781823
0.00509484
-0.0086154
0.00486219
-0.00942091
0.00455794
-0.0102255
0.00417601
-0.0110181
0.0037113
-0.011789
0.00316095
-0.0125315
0.00252222
-0.0132286
0.00178476
-0.0138669
0.000951464
-0.014356
2.94648e-06
-0.0147325
-0.000902037
-0.0149301
-0.00184163
-0.0149316
-0.00271689
-0.00336188
0.00630296
0.00518768
0.00631183
0.00547286
0.00624898
0.00554829
0.00614528
0.00554901
0.00599359
0.00552683
0.00578885
0.00546749
0.00553493
0.00534877
0.00523767
0.00515945
0.00490141
0.00489419
0.0045299
0.00454752
0.0041274
0.0041138
0.00369896
0.00358938
0.00324641
0.00297477
0.00277122
0.00225995
0.00228433
0.00143835
0.00177088
0.000516403
0.00131234
-0.000443499
0.00089372
-0.00142301
0.000570706
-0.00239388
-0.0032309
0.0168011
0.00457361
0.0172667
0.00500725
0.0176712
0.00514383
0.0180526
0.00516763
0.0183945
0.00518494
0.0186863
0.00517561
0.0189314
0.00510369
0.0191336
0.00495725
0.0192935
0.00473433
0.0194107
0.00443028
0.0194855
0.00403896
0.0195182
0.00355673
0.0195064
0.00298653
0.0194463
0.0023201
0.0193375
0.00154714
0.0191753
0.000678559
0.0189692
-0.00023736
0.0187077
-0.00116154
0.0183819
-0.00206808
-0.00300623
0.0290582
0.00385513
0.0296803
0.0043851
0.0302985
0.00452565
0.030943
0.00452314
0.0315811
0.00454677
0.0322026
0.00455413
0.0328119
0.00449446
0.0334081
0.00436101
0.0339858
0.00415661
0.0345404
0.0038757
0.0350682
0.00351119
0.0355655
0.00305938
0.0360252
0.00252689
0.0364436
0.00190163
0.0368111
0.0011797
0.0371321
0.000357509
0.0373547
-0.000459955
0.0375156
-0.00132246
0.0375342
-0.00208667
-0.00302833
0.0440137
0.003408
0.0445087
0.00389007
0.0451196
0.00391477
0.0458049
0.00383789
0.0465218
0.00382985
0.0472793
0.00379665
0.0480815
0.00369226
0.0489178
0.00352465
0.0497763
0.00329813
0.0506487
0.00300334
0.0515268
0.00263308
0.0524018
0.00218439
0.0532592
0.00166949
0.0541048
0.00105606
0.0549286
0.000355842
0.055681
-0.000394918
0.0563529
-0.0011318
0.0569708
-0.00194039
0.057452
-0.00256787
-0.00344361
0.060516
0.00325791
0.0609547
0.00345138
0.0616197
0.00324973
0.0623443
0.00311327
0.0631213
0.00305283
0.0639773
0.0029407
0.0649025
0.00276708
0.0658814
0.00254573
0.0669054
0.00227407
0.0679692
0.00193961
0.0690637
0.00153858
0.0701845
0.00106358
0.0713254
0.000528596
0.0724738
-9.2354e-05
0.0735727
-0.000743018
0.0746486
-0.00147082
0.0756655
-0.00214873
0.0766362
-0.00291112
0.0775079
-0.00343951
-0.00422418
0.0757527
0.00267871
0.0767601
0.002444
0.0777278
0.002282
0.0786571
0.00218397
0.0796346
0.00207534
0.0806566
0.00191868
0.0817107
0.00171299
0.0828004
0.00145602
0.0839292
0.00114528
0.0850978
0.000771021
0.0863
0.000336369
0.0875405
-0.000176871
0.0888034
-0.000734394
0.0900788
-0.00136773
0.0913495
-0.00201369
0.0926153
-0.0027366
0.0938447
-0.0033782
0.0950492
-0.00411561
0.0961943
-0.00458454
-0.00528224
0.103118
0.00342784
-0.103868
0.102385
0.00317767
0.101773
0.00289344
0.10133
0.00262704
0.10105
0.00235592
0.100905
0.00206288
0.100872
0.00174668
0.10093
0.00139776
0.101062
0.00101368
0.101253
0.000579834
0.101486
0.000103542
0.101738
-0.0004295
0.101991
-0.000987448
0.10223
-0.00160615
0.102426
-0.00221041
0.102571
-0.00288165
0.102641
-0.00344737
0.102634
-0.00410914
0.102545
-0.00449519
-0.00507294
0.112769
0.00342967
-0.112771
0.1127
0.00324688
0.112591
0.00300183
0.112508
0.00270989
0.112469
0.00239567
0.112469
0.00206287
0.112504
0.00171174
0.112571
0.00133035
0.112663
0.000921422
0.112771
0.000472393
0.112875
-1.0143e-06
0.112982
-0.000536554
0.113066
-0.00107098
0.113119
-0.00165924
0.113122
-0.0022131
0.113068
-0.00282829
0.112946
-0.00332558
0.112754
-0.00391715
0.1125
-0.00424071
-0.00476229
0.118886
0.00345726
-0.118913
0.118977
0.00315504
0.119105
0.00287459
0.119246
0.00256894
0.119399
0.00224267
0.119562
0.00189979
0.11973
0.00154368
0.119898
0.00116252
0.120057
0.000762023
0.120204
0.000325548
0.120332
-0.00012916
0.120424
-0.000628601
0.120475
-0.00112184
0.120477
-0.00166168
0.12042
-0.0021561
0.120301
-0.00270912
0.120116
-0.00314043
0.119865
-0.00366653
0.119566
-0.00394146
-0.00441492
0.123191
0.00335821
-0.123091
0.12337
0.00297526
0.123594
0.00265141
0.123829
0.00233319
0.124067
0.00200478
0.124305
0.00166191
0.124538
0.00131043
0.124761
0.000939443
0.124967
0.000556465
0.125149
0.000143686
0.125297
-0.000277571
0.125403
-0.00073468
0.125461
-0.00117922
0.125464
-0.0016651
0.125408
-0.00209983
0.125289
-0.00259052
0.12511
-0.00296155
0.124871
-0.0034271
0.124589
-0.00365996
-0.00408449
0.126661
0.00313068
-0.126434
0.126903
0.00273349
0.127169
0.00238565
0.127444
0.00205781
0.127717
0.00173203
0.127983
0.00139642
0.128237
0.00105579
0.128477
0.000700112
0.128694
0.000338653
0.128884
-4.63631e-05
0.129038
-0.000431292
0.12915
-0.000846458
0.129214
-0.00124363
0.129226
-0.00167728
0.129184
-0.00205758
0.129084
-0.0024902
0.128931
-0.00280898
0.128723
-0.00321884
0.128479
-0.00341587
-0.00379452
0.129963
0.00285259
-0.129685
0.130233
0.00246391
0.13051
0.00210834
0.130791
0.00177664
0.131067
0.00145638
0.131331
0.00113218
0.13158
0.000806487
0.131811
0.000469059
0.132019
0.000131041
0.132198
-0.000225377
0.132343
-0.0005762
0.132448
-0.000951774
0.13251
-0.00130579
0.132525
-0.00169156
0.132491
-0.00202421
0.132406
-0.00240482
0.132276
-0.00267934
0.132097
-0.0030392
0.131887
-0.0032068
-0.00354287
0.133409
0.00256457
-0.133121
0.133683
0.00218953
0.133953
0.00183832
0.13422
0.0015105
0.134477
0.00119896
0.134721
0.000888434
0.134947
0.000579794
0.135154
0.000262489
0.135338
-5.24665e-05
0.135493
-0.000380726
0.135617
-0.00070011
0.135704
-0.00103924
0.135753
-0.0013548
0.13576
-0.00169775
0.135725
-0.00198931
0.135644
-0.00232419
0.135526
-0.00256152
0.135364
-0.00287727
0.135178
-0.00302073
-0.00331741
0.137066
0.00227752
-0.136779
0.137332
0.00192314
0.137584
0.00158616
0.137826
0.00126933
0.138055
0.000970017
0.138268
0.000674985
0.138463
0.000384692
0.138637
8.85035e-05
0.138788
-0.000203415
0.138912
-0.000504754
0.139007
-0.000794882
0.139068
-0.00110071
0.139096
-0.00138208
0.139085
-0.00168693
0.139038
-0.00194301
0.138952
-0.00223782
0.138834
-0.00244373
0.138678
-0.00272067
0.138501
-0.00284403
-0.00310471
0.14088
0.00200071
-0.140604
0.14113
0.00167326
0.141359
0.00135695
0.141572
0.00105649
0.141769
0.000772809
0.141949
0.000495314
0.142109
0.000224874
0.142248
-5.03473e-05
0.142363
-0.000318382
0.142452
-0.000593786
0.142513
-0.00085644
0.142544
-0.00113156
0.142544
-0.00138221
0.14251
-0.0016529
0.142445
-0.00187795
0.142345
-0.00213736
0.142217
-0.00231635
0.142056
-0.00255893
0.141877
-0.00266526
-0.00289326
0.144758
0.00174362
-0.144501
0.144987
0.001445
0.145191
0.00115283
0.145375
0.000872635
0.14554
0.000607743
0.145685
0.000349807
0.14581
0.000100419
0.145912
-0.000152763
0.145991
-0.000397021
0.146044
-0.000646899
0.146071
-0.000883359
0.146069
-0.00112975
0.146039
-0.00135228
0.145978
-0.00159191
0.145889
-0.00178933
0.145769
-0.00201704
0.145625
-0.00217251
0.145451
-0.00238436
0.145261
-0.00247601
-0.00267439
0.148597
0.00151018
-0.148364
0.148802
0.00124061
0.14898
0.000974549
0.149135
0.000717509
0.149269
0.000474149
0.149381
0.00023772
0.149471
1.04707e-05
0.149537
-0.000219632
0.14958
-0.000439966
0.149598
-0.000664521
0.14959
-0.000875626
0.149555
-0.00109472
0.149494
-0.00129106
0.149404
-0.00150201
0.149289
-0.00167435
0.149145
-0.00187328
0.148981
-0.00200782
0.148788
-0.00219193
0.148583
-0.00227067
-0.00244224
0.152289
0.00130014
-0.152079
0.152469
0.00106021
0.152622
0.000821779
0.152749
0.000590133
0.152853
0.000370535
0.152933
0.000157593
0.152991
-4.73604e-05
0.153024
-0.000252447
0.153032
-0.000448743
0.153016
-0.000648126
0.152975
-0.000834428
0.152907
-0.00102726
0.152815
-0.00119881
0.152696
-0.00138292
0.152554
-0.0015321
0.152385
-0.00170461
0.152197
-0.00182016
0.151984
-0.00197906
0.15176
-0.00204624
-0.00219358
0.155718
0.00111199
-0.15553
0.155875
0.00090253
0.156004
0.000692986
0.156106
0.000488389
0.156182
0.000294266
0.156234
0.000106183
0.156261
-7.46562e-05
0.156263
-0.000254683
0.156241
-0.000426423
0.156193
-0.000600605
0.156121
-0.000762454
0.156024
-0.000929795
0.155903
-0.0010776
0.155756
-0.00123635
0.155588
-0.00136386
0.155395
-0.00151187
0.155185
-0.00160995
0.154952
-0.00174583
0.154708
-0.00180249
-0.001928
0.158761
0.000943698
-0.158593
0.158899
0.000765047
0.159007
0.000585174
0.159086
0.000408801
0.159139
0.000241381
0.159166
7.93103e-05
0.159168
-7.63599e-05
0.159144
-0.000230947
0.159096
-0.000377882
0.159022
-0.000526894
0.158924
-0.000664622
0.158801
-0.000807124
0.158656
-0.000932072
0.158486
-0.00106666
0.158296
-0.00117372
0.158083
-0.00129884
0.157854
-0.00138069
0.157603
-0.00149539
0.157343
-0.0015424
-0.00164822
0.161298
0.000791344
-0.161145
0.16142
0.000643132
0.161512
0.000493154
0.161575
0.000345646
0.161611
0.000205713
0.16162
7.01695e-05
0.161603
-5.96061e-05
0.161561
-0.000188596
0.161493
-0.000310715
0.161401
-0.000434703
0.161285
-0.000548713
0.161145
-0.000666961
0.160983
-0.000769859
0.160798
-0.000881268
0.160593
-0.000968958
0.160366
-0.00107244
0.160125
-0.00113912
0.159863
-0.00123409
0.159593
-0.00127217
-0.00135996
0.163233
0.000647447
-0.163089
0.163347
0.000528919
0.163432
0.000408666
0.163487
0.00029026
0.163515
0.000178049
0.163516
6.9415e-05
0.16349
-3.43394e-05
0.163439
-0.000137657
0.163364
-0.000235134
0.163263
-0.000334308
0.16314
-0.000425036
0.162992
-0.000519494
0.162824
-0.00060106
0.162632
-0.000689991
0.162423
-0.000759199
0.162192
-0.000841879
0.161947
-0.000894263
0.161683
-0.00097039
0.161411
-0.00100016
-0.00107086
0.164549
0.000501767
-0.164403
0.164666
0.000412321
0.164753
0.000321604
0.16481
0.000232429
0.16484
0.000148138
0.164843
6.64144e-05
0.16482
-1.12349e-05
0.164771
-8.88721e-05
0.164698
-0.000161894
0.1646
-0.000236351
0.164479
-0.000304128
0.164335
-0.000375037
0.16417
-0.000435807
0.163982
-0.000502598
0.163777
-0.000553987
0.163551
-0.000616208
0.163312
-0.000654963
0.163054
-0.000712485
0.162788
-0.000734433
-0.000788185
0.165331
0.00034613
-0.165175
0.165458
0.000285525
0.165555
0.000224374
0.165623
0.000164652
0.165662
0.000108449
0.165675
5.38618e-05
0.165661
2.13922e-06
0.165622
-4.96647e-05
0.165559
-9.83408e-05
0.16547
-0.00014807
0.165359
-0.000193103
0.165225
-0.00024049
0.16507
-0.000280778
0.164893
-0.000325465
0.164698
-0.000359445
0.164483
-0.000401173
0.164255
-0.00042673
0.164008
-0.000465433
0.163753
-0.000479873
-0.000516247
0.165733
0.000178967
-0.165566
0.165871
0.000146826
0.16598
0.000115602
0.166059
8.56208e-05
0.16611
5.75932e-05
0.166134
3.0341e-05
0.166131
4.85127e-06
0.166103
-2.15274e-05
0.16605
-4.56916e-05
0.165973
-7.07074e-05
0.165873
-9.30819e-05
0.165749
-0.000116954
0.165605
-0.000136849
0.165439
-0.00015946
0.165256
-0.000176105
0.165052
-0.000197374
0.164835
-0.000209691
0.164599
-0.000229626
0.164356
-0.00023627
-0.000255003
0.165896
-0.165717
0.166043
0.166159
0.166244
0.166302
0.166332
0.166337
0.166315
0.16627
0.166199
0.166106
0.165989
0.165852
0.165693
0.165517
0.165319
0.16511
0.16488
0.164644
0.0950483
0.0172882
-0.0935764
0.0966556
0.0273162
0.0984304
0.0372905
0.10032
0.0471264
0.102391
0.0565432
0.104506
0.0656154
0.106412
0.0740351
0.108322
0.0811779
0.106672
0.0889045
0.0881397
0.0969611
0.0159373
-0.0956102
0.098492
0.0257853
0.100254
0.0355287
0.10222
0.0451605
0.104327
0.0544359
0.106817
0.0631256
0.108933
0.0719186
0.111933
0.0781781
0.113471
0.0873668
0.0888397
0.0991287
0.0147134
-0.0979048
0.10059
0.0243243
0.102276
0.0338425
0.104298
0.0431383
0.106391
0.0523436
0.109062
0.0604545
0.111524
0.0694567
0.114494
0.0752079
0.117638
0.0842221
0.087565
0.101466
0.0135967
-0.10035
0.102887
0.0229041
0.104519
0.0322103
0.106558
0.0410987
0.108706
0.0501955
0.11132
0.0578407
0.11411
0.0666669
0.116847
0.0724704
0.120465
0.080605
0.0849381
0.103922
0.0125605
-0.102885
0.10531
0.0215154
0.106949
0.0305722
0.108973
0.0390743
0.111244
0.0479247
0.113757
0.0553275
0.116742
0.0636815
0.119524
0.0696883
0.123139
0.0769901
0.0816435
0.106452
0.0115784
-0.105469
0.107807
0.0201595
0.109492
0.0288878
0.11151
0.0370564
0.113912
0.045523
0.11645
0.0527889
0.11954
0.0605918
0.122556
0.0666725
0.126114
0.0734312
0.0780731
0.109007
0.0106339
-0.108063
0.110338
0.0188286
0.112077
0.0271487
0.114134
0.0349998
0.116648
0.0430092
0.119333
0.0501036
0.122507
0.0574175
0.125769
0.0634108
0.129383
0.0698174
0.074335
0.111539
0.00972046
-0.110626
0.112864
0.0175041
0.114653
0.0253597
0.116793
0.0328597
0.119408
0.040394
0.122282
0.0472294
0.125574
0.0541263
0.12906
0.0599241
0.13285
0.0660281
0.0704057
0.113999
0.0088356
-0.113114
0.115337
0.0161668
0.117174
0.0235222
0.119421
0.0306128
0.122145
0.0376697
0.125209
0.0441657
0.12867
0.0506654
0.132389
0.056205
0.136429
0.0619882
0.066231
0.116341
0.0079753
-0.115481
0.117703
0.0148045
0.119595
0.021631
0.121955
0.0282529
0.124806
0.0348182
0.128059
0.040913
0.131732
0.0469925
0.135702
0.0522344
0.14003
0.0576604
0.0617597
0.118521
0.00713395
-0.11768
0.119913
0.0134122
0.121865
0.0196789
0.124338
0.0257803
0.127332
0.0318238
0.130777
0.0374686
0.134682
0.0430873
0.13892
0.0479966
0.143556
0.0530245
0.0569516
0.120498
0.00630676
-0.11967
0.12192
0.0119896
0.123937
0.0176622
0.126519
0.0231978
0.129662
0.0286809
0.133298
0.0338325
0.137439
0.0389466
0.141953
0.0434828
0.146908
0.0480698
0.0517806
0.122232
0.00549168
-0.121417
0.123682
0.0105401
0.125761
0.0155827
0.128447
0.0205122
0.131733
0.0253949
0.135554
0.0300114
0.139923
0.0345773
0.144713
0.0386932
0.149986
0.0427971
0.0462365
0.123684
0.00468879
-0.122881
0.125155
0.00906873
0.127291
0.0134468
0.130069
0.0177344
0.133485
0.0219791
0.137477
0.0260194
0.142057
0.0299965
0.14711
0.033641
0.152684
0.0372226
0.0403277
0.124812
0.00389736
-0.12402
0.1263
0.00758043
0.128483
0.0112639
0.131339
0.0148784
0.134865
0.0184527
0.139006
0.0218783
0.143771
0.025232
0.149058
0.0283538
0.154901
0.0313793
0.0340837
0.125593
0.00311294
-0.124808
0.127095
0.00607783
0.129316
0.00904324
0.132234
0.0119601
0.135848
0.0148392
0.140109
0.0176171
0.14502
0.0203209
0.1505
0.0228737
0.156562
0.0253169
0.0275569
0.126056
0.00232937
-0.125272
0.127571
0.0045625
0.129819
0.00679491
0.132783
0.00899643
0.136457
0.0111646
0.140806
0.013269
0.14582
0.0153062
0.151442
0.0172516
0.157664
0.0190952
0.0208176
0.126295
0.00154624
-0.125512
0.127818
0.00303919
0.130082
0.00453076
0.133073
0.00600533
0.136784
0.00745426
0.141186
0.00886691
0.146264
0.0102285
0.151976
0.0115393
0.158298
0.0127732
0.0139403
0.12642
0.000771451
-0.125645
0.127943
0.00151615
0.13021
0.00226338
0.133213
0.00300316
0.136938
0.00372868
0.141367
0.004438
0.146476
0.00511981
0.152236
0.00577913
0.158612
0.00639757
0.00698639
0.126485
-0.125713
0.128001
0.130264
0.133268
0.136996
0.141434
0.146554
0.152333
0.158731
0.0451457
0.0574018
-0.0514652
-0.0510823
0.0390681
0.0566518
-0.0505743
0.0332673
0.0563273
-0.0505265
0.0276788
0.056532
-0.0509434
0.0222148
0.0571848
-0.0517207
0.016828
0.0583019
-0.0529151
0.011512
0.0598359
-0.0545199
0.00641485
0.060682
-0.0555849
0.00212198
0.0559814
-0.0516886
0.0329461
-0.0308241
0.0424244
0.063342
-0.0483646
0.0365756
0.0625006
0.0309302
0.0619726
0.0255176
0.0619446
0.0202727
0.0624297
0.015133
0.0634415
0.0101036
0.0648653
0.00538522
0.0654004
0.00161115
0.0597555
0.0345572
0.0389364
0.0689188
-0.0445132
0.0333974
0.0680397
0.0280066
0.0673635
0.0228316
0.0671195
0.0178507
0.0674107
0.0130146
0.0682776
0.00835056
0.0695294
0.00411736
0.0696336
0.000985227
0.0628876
0.0355425
0.0344399
0.0740821
-0.0396032
0.0293432
0.0731364
0.0243515
0.0723552
0.019539
0.071932
0.0149172
0.0720324
0.0104644
0.0727304
0.00624484
0.0737489
0.00260749
0.073271
0.00022492
0.0652702
0.0357674
0.0290158
0.0787767
-0.0337105
0.0244201
0.0777322
0.0199318
0.0768435
0.0156
0.0762638
0.0114442
0.0761882
0.00747203
0.0767026
0.00378966
0.0774313
0.000816952
0.0762437
-0.000536416
0.0666236
0.035231
0.0226788
0.0828998
-0.0268019
0.0186754
0.0817355
0.0147841
0.0807347
0.0110321
0.0800159
0.00744268
0.0797776
0.00405614
0.0800891
0.0010571
0.0804303
-0.0010467
0.0783475
-0.00134328
0.0669202
0.0338877
0.0155358
0.0863396
-0.0189756
0.0122074
0.0850639
0.00898908
0.0839531
0.00589359
0.0831114
0.00295828
0.0827129
0.000245408
0.082802
-0.00195582
0.0826316
-0.00300313
0.0793948
-0.00216827
0.0660853
0.0317194
0.00767974
0.0890082
-0.0103483
0.00509348
0.0876501
0.00262872
0.0864179
0.000277194
0.0854629
-0.00196287
0.084953
-0.00391531
0.0847544
-0.00519797
0.0839142
-0.00509267
0.0792895
-0.00296219
0.0639548
0.0287572
-0.000790091
0.0909455
-0.00114726
-0.00255171
0.0894117
-0.00423106
0.0880972
-0.0058313
0.0870631
-0.00727226
0.0863939
-0.00835998
0.0858421
-0.00859117
0.0841454
-0.00716624
0.0778646
-0.00365333
0.0604419
0.0251039
-0.00967103
0.00875261
-0.010591
-0.0114553
-0.0122411
-0.0128484
-0.0129729
-0.0119912
-0.00908557
-0.0041567
0.0411535
0.00388442
-0.045038
0.0371221
0.00403139
0.0329201
0.00420206
0.0285246
0.0043955
0.0239048
0.00461975
0.0190204
0.00488447
0.0138318
0.00518861
0.00838978
0.00544197
0.00318832
0.00520147
0.00318832
0.0416166
0.0078852
-0.0456174
0.0374832
0.0081648
0.0331936
0.0084917
0.0287249
0.00886425
0.0240457
0.00929887
0.0191149
0.00981536
0.01389
0.0104135
0.00841885
0.0109131
0.00320477
0.0104156
0.00639308
0.0424822
0.0121065
-0.0467035
0.0381555
0.0124915
0.0336997
0.0129475
0.0290915
0.0134724
0.0242988
0.0140916
0.0192789
0.0148353
0.0139881
0.0157043
0.00847135
0.0164298
0.00322241
0.0156645
0.00961549
0.0436337
0.0166251
-0.0481523
0.0390451
0.01708
0.0343637
0.017629
0.0295659
0.0182702
0.0246191
0.0190384
0.0194794
0.019975
0.0141011
0.0210826
0.00852537
0.0220056
0.00323926
0.0209506
0.0128548
0.0449124
0.0214855
-0.0497728
0.0400209
0.0219715
0.0350779
0.022572
0.0300618
0.0232863
0.0249396
0.0241606
0.0196655
0.0252491
0.0141914
0.0265566
0.00855649
0.0276405
0.00324248
0.0262646
0.0160972
0.046145
0.0266874
-0.0513469
0.0409445
0.0271721
0.0357295
0.027787
0.0304864
0.0285295
0.0251842
0.0294627
0.0197762
0.0306571
0.0142131
0.0321197
0.00853366
0.0333199
0.00321703
0.0315812
0.0193143
0.04711
0.0322167
-0.0526393
0.0416095
0.0326726
0.0361449
0.0332516
0.0307061
0.0339683
0.0252534
0.0349153
0.0197371
0.0361735
0.0141113
0.0377455
0.00842101
0.0390102
0.00314652
0.0368557
0.0224608
0.0477617
0.0380115
-0.0535564
0.0419707
0.0384636
0.0362779
0.0389444
0.0306706
0.0395756
0.0250945
0.0404914
0.0194992
0.0417688
0.0138451
0.0433996
0.00818902
0.0446663
0.00301976
0.042025
0.0254805
0.0475672
0.0442272
-0.053783
0.041562
0.0444689
0.0358063
0.0447
0.0301561
0.0452259
0.0245487
0.0460988
0.018954
0.0473635
0.0133439
0.0490097
0.0077951
0.0502151
0.00282052
0.0469996
0.0283011
0.046915
-0.054153
0.0408096
0.0349831
0.0292656
0.0236436
0.018092
0.0125818
0.00721203
0.00252302
0.0491107
-0.00016154
0.0492705
-0.000159884
0.049428
-0.000157501
0.0495774
-0.000149347
0.0497133
-0.000135895
0.0498308
-0.000117529
0.0499247
-9.38784e-05
0.0499888
-6.4118e-05
0.0500154
-2.65812e-05
0.0499988
1.65397e-05
0.0499363
6.25772e-05
0.0498171
0.000119154
0.0496303
0.000186815
0.0493633
0.000266998
0.0490016
0.000361714
0.0485281
0.000473522
0.0479227
0.000605405
0.0471608
0.000761902
0.0462166
0.000944182
0.00117863
0.0499038
-0.000323169
0.0500617
-0.000317774
0.0502145
-0.000310306
0.0503579
-0.000292751
0.0504874
-0.000265414
0.0505982
-0.000228349
0.0506849
-0.000180576
0.0507411
-0.000120321
0.0507584
-4.38444e-05
0.0507338
4.11109e-05
0.050662
0.000134408
0.0505325
0.000248657
0.0503342
0.000385156
0.0500544
0.000546806
0.0496784
0.000737622
0.0491892
0.000962753
0.0485665
0.00122809
0.0477854
0.00154302
0.0468208
0.00190876
0.00238202
0.0514632
-0.000470275
0.0516069
-0.00046147
0.0517458
-0.000449251
0.051875
-0.000421903
0.0519894
-0.000379849
0.0520841
-0.000323019
0.0521535
-0.000249968
0.0521911
-0.000157923
0.0521885
-4.12856e-05
0.0521466
8.30005e-05
0.0520544
0.000226662
0.051902
0.000401025
0.0516785
0.00060869
0.051371
0.000854253
0.0509649
0.00114375
0.0504426
0.00148505
0.049784
0.00188669
0.0489632
0.0023638
0.0479574
0.00291459
0.00363591
0.0537271
-0.000589157
0.0538426
-0.000576956
0.0539533
-0.000559976
0.054054
-0.00052263
0.0541394
-0.000465208
0.0542041
-0.000387743
0.0542426
-0.00028851
0.0542477
-0.000163014
0.0542042
2.22811e-06
0.0541302
0.000157011
0.0540015
0.000355342
0.0538093
0.000593244
0.0535429
0.000875105
0.0531893
0.00120786
0.0527335
0.00159949
0.0521576
0.00206102
0.0514416
0.00260269
0.0505575
0.00324786
0.0494871
0.00398506
0.00497064
0.0566117
-0.000660766
0.0566797
-0.000644917
0.0567419
-0.00062223
0.056793
-0.000573741
0.056827
-0.000499221
0.056838
-0.000398747
0.0568194
-0.000269833
0.056763
-0.000106621
0.0566828
8.23943e-05
0.0565493
0.000290519
0.0563594
0.000545246
0.0561032
0.00084944
0.0557696
0.00120872
0.0553451
0.00163234
0.054815
0.00212962
0.0541598
0.00271621
0.0533609
0.00340157
0.0523857
0.00422303
0.0512242
0.00514659
0.006422
0.0600202
-0.000659955
0.0600148
-0.0006395
0.0600011
-0.000608507
0.0599741
-0.000546744
0.0599281
-0.000453272
0.0598579
-0.000328539
0.0597563
-0.000168187
0.0596142
3.54504e-05
0.0594495
0.000247106
0.0592292
0.000510812
0.058949
0.000825455
0.0585995
0.00119891
0.0581699
0.00163836
0.0576453
0.0021569
0.0570118
0.00276307
0.0562472
0.00348088
0.0553358
0.00431292
0.0542368
0.00532203
0.0529541
0.00642933
0.00802914
0.063854
-0.000554416
0.0637412
-0.000526719
0.0636144
-0.000481665
0.0634705
-0.000402897
0.0633063
-0.000288981
0.0631121
-0.000134407
0.062884
5.99207e-05
0.0626449
0.000274543
0.0623525
0.000539563
0.062006
0.000857248
0.0615986
0.00123287
0.061119
0.00167851
0.0605575
0.00219987
0.059897
0.00281738
0.0591267
0.00353336
0.0582184
0.00438924
0.0571645
0.00536677
0.0559069
0.0065797
0.0544685
0.00786773
0.00985833
0.0680198
-0.000296269
0.0677547
-0.00026161
0.0674706
-0.000197576
0.0671613
-9.35585e-05
0.0668239
4.83929e-05
0.0664738
0.000215676
0.0661043
0.000429483
0.0656891
0.000689746
0.0652284
0.00100026
0.0647139
0.00137176
0.0641385
0.00180822
0.0634889
0.00232816
0.0627577
0.00293101
0.0619223
0.00365276
0.0609782
0.00447751
0.0598825
0.00548493
0.0586491
0.00660019
0.057195
0.00803382
0.0555842
0.00947848
0.0118861
0.0724364
0.000173767
0.0719556
0.000219172
0.0714551
0.000302892
0.0709387
0.000422934
0.0704078
0.000579268
0.0698467
0.00077673
0.0692555
0.00102069
0.0686266
0.00131865
0.0679546
0.00167231
0.0672289
0.00209744
0.066444
0.00259309
0.065583
0.00318919
0.0646444
0.00386961
0.0635981
0.004699
0.0624559
0.00561974
0.0611428
0.00679804
0.0597019
0.00804107
0.0579604
0.00977531
0.0561221
0.0113168
0.0142252
0.0770753
0.000971636
0.07631
0.00098441
0.0755452
0.00106767
0.0747643
0.00120384
0.0739629
0.00138073
0.0731377
0.00160189
0.0722869
0.00187149
0.0714026
0.00220298
0.070479
0.0025959
0.0695038
0.00307266
0.0684739
0.00362299
0.0673679
0.0042952
0.066192
0.00504546
0.0649047
0.00598638
0.0635461
0.00697832
0.0620189
0.00832527
0.0604901
0.00956981
0.0586216
0.0116438
0.0569236
0.0130148
0.0169959
0.0756801
0.000901219
0.0756903
0.000974223
0.075672
0.00108594
0.0756441
0.00123175
0.0756165
0.0014083
0.0755924
0.00162596
0.0755753
0.00188865
0.0755652
0.00221302
0.0755675
0.00259358
0.075581
0.00305924
0.0756187
0.00358522
0.0756762
0.00423775
0.075785
0.00493666
0.0759237
0.00584771
0.0761721
0.00672986
0.0764633
0.00803409
0.0770016
0.00903147
0.077647
0.0109985
0.0790039
0.0116579
0.0146721
0.0813276
0.0804664
0.000897625
0.0804501
0.000990528
0.0804215
0.00111456