/*--------------------------------*- C++ -*----------------------------------*\
| =========                 |                                                 |
| \\      /  F ield         | OpenFOAM: The Open Source CFD Toolbox           |
|  \\    /   O peration     | Version:  4.1                                   |
|   \\  /    A nd           | Web:      www.OpenFOAM.org                      |
|    \\/     M anipulation  |                                                 |
\*---------------------------------------------------------------------------*/
FoamFile
{
    version     2.0;
    format      ascii;
    class       volVectorField;
    location    "9.9";
    object      U;
}
// * * * * * * * * * * * * * * * * * * * * * * * * * * * * * * * * * * * * * //

dimensions      [0 1 -1 0 0 0 0];

internalField   nonuniform List<vector> 
2000
(
(-0.0405094 0.0338023 5.83601e-21)
(-0.0299011 0.0460002 0)
(0.0594457 0.0394665 4.43965e-21)
(0.215544 0.0273031 8.70216e-22)
(0.423685 0.0179709 -1.53988e-21)
(0.660829 0.0145297 1.6477e-22)
(0.903662 0.018198 -2.2056e-22)
(1.12444 0.0230766 0)
(1.33981 0.0360783 6.25269e-22)
(1.47212 0.0420406 0)
(-0.0375594 0.0277915 -2.74195e-21)
(0.00799279 0.0266006 1.49655e-21)
(0.157308 0.0151184 -8.26554e-21)
(0.386222 0.00608702 -7.1915e-21)
(0.660056 0.00588017 -9.31083e-22)
(0.938488 0.0138756 -3.58354e-22)
(1.18993 0.0267809 -6.15559e-22)
(1.39856 0.038663 3.47912e-22)
(1.56374 0.052557 -6.25228e-22)
(1.66123 0.0511551 -1.95106e-21)
(-0.0278789 0.0197286 4.38255e-21)
(0.070186 0.00547571 -4.10501e-21)
(0.297175 -0.00512505 4.3067e-21)
(0.602343 -0.00352297 -1.54531e-21)
(0.922109 0.00991443 1.74342e-21)
(1.20581 0.028881 8.77232e-22)
(1.42974 0.0471818 1.91962e-22)
(1.59166 0.0603494 -3.479e-22)
(1.70056 0.068915 -1.15341e-21)
(1.77525 0.0675595 1.72586e-21)
(-0.00878754 0.00983543 -6.64041e-22)
(0.161898 -0.0146029 -5.58219e-21)
(0.477568 -0.015546 0)
(0.843037 0.00282153 2.70534e-21)
(1.17198 0.0293424 -4.19322e-21)
(1.42371 0.0539909 0)
(1.59605 0.0715861 0)
(1.70528 0.0803996 0)
(1.77611 0.084251 1.15347e-21)
(1.81756 0.0794959 -4.06076e-21)
(0.0225522 -0.000956048 1.75702e-20)
(0.285502 -0.0286 5.7221e-23)
(0.685811 -0.0105953 5.59957e-21)
(1.0775 0.0252816 2.18576e-21)
(1.37817 0.0591439 2.52264e-21)
(1.57684 0.0827887 1.25931e-21)
(1.69648 0.0951912 0)
(1.76746 0.0989342 -5.82666e-22)
(1.8124 0.0979157 6.2132e-21)
(1.84762 0.090637 -8.90555e-21)
(0.0684592 -0.0105337 -3.04772e-20)
(0.437586 -0.029968 1.85185e-21)
(0.89937 0.0120097 -1.11304e-20)
(1.27919 0.0601695 9.14833e-21)
(1.52928 0.0941924 -6.66901e-21)
(1.67366 0.112296 2.63335e-21)
(1.75274 0.118435 0)
(1.79906 0.117246 5.82716e-22)
(1.8334 0.112332 -1.22293e-21)
(1.86427 0.10448 -9.63857e-21)
(0.129707 -0.0159223 0)
(0.606973 -0.0136864 0)
(1.09528 0.0504465 -6.5157e-21)
(1.43603 0.103173 6.06552e-21)
(1.63034 0.131938 -2.07687e-21)
(1.72948 0.142526 1.94989e-21)
(1.78059 0.142307 -1.61027e-21)
(1.81357 0.136662 1.52209e-21)
(1.84245 0.12865 4.93144e-21)
(1.87256 0.119772 -2.34901e-21)
(0.204889 -0.0138414 7.92756e-21)
(0.777239 0.0215855 0)
(1.25906 0.101144 -2.80747e-21)
(1.54802 0.151375 1.08112e-20)
(1.69127 0.171538 -5.1012e-21)
(1.75629 0.173819 0)
(1.78994 0.167515 0)
(1.81597 0.157721 0)
(1.84331 0.146904 6.78736e-21)
(1.87356 0.137101 -6.4519e-21)
(0.289752 -0.0016133 -4.13769e-21)
(0.932516 0.0735628 -2.91943e-22)
(1.3852 0.160599 -4.32899e-21)
(1.62022 0.202912 1.17762e-21)
(1.72108 0.212525 1.11385e-21)
(1.76224 0.206362 4.367e-22)
(1.78569 0.194241 0)
(1.80878 0.180468 9.73003e-22)
(1.83571 0.167114 5.77288e-21)
(1.86599 0.155562 -4.34373e-21)
(0.377776 0.0220947 0)
(1.06199 0.138128 -3.25759e-21)
(1.47345 0.225639 0)
(1.65863 0.256401 -8.46639e-22)
(1.7266 0.254477 -7.73228e-22)
(1.75203 0.239982 8.31344e-23)
(1.77008 0.222211 0)
(1.79221 0.204487 -9.73106e-22)
(1.81944 0.188496 -1.20294e-21)
(1.85016 0.174598 -1.64129e-21)
(-0.00860044 0.00835175 0)
(-0.0348996 0.0157311 4.45472e-22)
(-0.0727646 0.0185277 0)
(-0.110052 0.0193366 4.48692e-22)
(-0.144488 0.019338 1.02243e-22)
(-0.176046 0.019133 -1.63767e-22)
(-0.205056 0.0190302 1.54229e-22)
(-0.232024 0.0191822 -7.01246e-23)
(-0.25763 0.0196972 -1.90497e-23)
(-0.282812 0.0206711 -2.56021e-24)
(-0.0100531 0.0239907 1.49102e-21)
(-0.0358684 0.0455057 -9.06984e-22)
(-0.0709244 0.0538369 6.55314e-22)
(-0.104547 0.056243 -3.01165e-22)
(-0.134764 0.0561398 -1.05672e-21)
(-0.16152 0.0553085 3.80008e-22)
(-0.185083 0.0546905 0)
(-0.20584 0.0547894 6.98888e-23)
(-0.224289 0.0559678 2.16788e-23)
(-0.241779 0.0585366 0)
(-0.0127124 0.0366627 -9.94773e-22)
(-0.0378323 0.07054 0)
(-0.0678833 0.0841176 -1.78709e-21)
(-0.0948827 0.0880339 1.94769e-21)
(-0.117424 0.0875651 -4.21417e-22)
(-0.135491 0.0855599 0)
(-0.149303 0.0835954 0)
(-0.159097 0.0826249 0)
(-0.164945 0.0833891 1.83331e-22)
(-0.168528 0.0865531 -1.74234e-22)
(-0.0161279 0.0451996 0)
(-0.0407724 0.0886647 1.09225e-21)
(-0.0646295 0.106765 -1.90826e-21)
(-0.0830767 0.111964 8.34554e-22)
(-0.0955808 0.11083 -5.10894e-22)
(-0.102325 0.107032 1.14031e-21)
(-0.103558 0.10267 -2.90429e-22)
(-0.0995232 0.0991522 -3.13839e-22)
(-0.0897599 0.0977763 2.07887e-22)
(-0.074687 0.100264 -3.13148e-22)
(-0.0198651 0.0494288 -1.14399e-21)
(-0.0445791 0.0989083 1.51148e-21)
(-0.0619847 0.120189 -8.13587e-23)
(-0.0708392 0.126154 1.1717e-22)
(-0.0717284 0.124067 -3.79744e-22)
(-0.0652247 0.118091 1.02282e-21)
(-0.0516776 0.110595 0)
(-0.0315302 0.103128 9.21416e-23)
(-0.00418748 0.0975297 -2.52725e-23)
(0.0334994 0.0978695 -1.00708e-21)
(-0.0236825 0.0500399 -2.30377e-22)
(-0.0489925 0.101508 -1.1373e-21)
(-0.0600644 0.123909 -5.81017e-22)
(-0.0584904 0.129642 -2.14242e-22)
(-0.0459878 0.126212 -3.99103e-22)
(-0.0235929 0.118013 -2.91564e-22)
(0.00821087 0.107454 0)
(0.0487808 0.0959054 -9.2135e-23)
(0.0976605 0.0849916 -3.37141e-22)
(0.166935 0.0812471 -1.3604e-22)
(-0.0275952 0.0482364 3.47966e-23)
(-0.0534741 0.097683 -1.26049e-22)
(-0.0576591 0.118518 0)
(-0.0437923 0.122432 8.55754e-22)
(-0.0143491 0.116978 -5.79308e-22)
(0.0293234 0.106637 0)
(0.0866518 0.0939008 0)
(0.156928 0.080301 0)
(0.233214 0.065065 3.77025e-22)
(0.352041 0.0577096 -2.85e-22)
(-0.0316975 0.0452534 -2.65136e-22)
(-0.0568674 0.0891005 2.4836e-22)
(-0.0515456 0.105457 2.01688e-22)
(-0.0206805 0.105684 2.5533e-22)
(0.0330173 0.0973868 -4.90582e-22)
(0.107843 0.0850999 -6.15609e-22)
(0.202352 0.0715059 -6.5344e-22)
(0.315632 0.0594154 -6.68243e-22)
(0.426179 0.0432037 -3.76977e-22)
(0.611182 0.0377972 8.93986e-22)
(-0.0358269 0.0418815 -3.08624e-21)
(-0.0568402 0.0772254 -1.22442e-22)
(-0.0358005 0.0866622 -4.49402e-22)
(0.0214044 0.0818183 2.45873e-22)
(0.111761 0.0705698 2.07216e-22)
(0.231777 0.0575215 7.60517e-22)
(0.376382 0.0453822 -6.13258e-22)
(0.540236 0.0378608 6.68153e-22)
(0.692108 0.0262065 -5.61823e-22)
(0.929006 0.0298926 9.37677e-22)
(-0.0392407 0.0382389 2.36147e-21)
(-0.0495549 0.0628445 0)
(-0.00199739 0.0640656 8.00703e-22)
(0.095994 0.0542798 3.04378e-23)
(0.238799 0.0418291 3.97486e-22)
(0.416643 0.0311409 -5.3902e-22)
(0.617073 0.024943 1.63771e-21)
(0.821607 0.0232872 0)
(1.0185 0.0229965 5.61731e-22)
(1.24276 0.0357905 0)
(-0.308086 0.0218897 0)
(-0.335157 0.0217609 -1.53375e-22)
(-0.361766 0.021385 3.64748e-22)
(-0.388029 0.0208884 -1.80385e-22)
(-0.41381 0.0202264 0)
(-0.438881 0.0193592 3.8978e-22)
(-0.46297 0.0182526 -3.91711e-22)
(-0.485764 0.0168794 0)
(-0.506913 0.0152224 0)
(-0.526036 0.0132757 7.34093e-23)
(-0.542718 0.0110406 0)
(-0.556506 0.00852886 0)
(-0.566916 0.00575916 0)
(-0.573547 0.00276024 0)
(-0.576253 -0.000384168 -1.30328e-22)
(-0.574987 -0.00346841 1.31003e-22)
(-0.569266 -0.00634759 0)
(-0.55822 -0.00894952 -2.51451e-23)
(-0.54316 -0.0112945 2.52774e-23)
(-0.532288 -0.0130926 0)
(-0.260531 0.0619051 0)
(-0.284132 0.0617338 3.86545e-23)
(-0.30706 0.0608244 0)
(-0.329749 0.059592 1.12575e-21)
(-0.352228 0.0579174 -1.07833e-21)
(-0.37431 0.0556836 9.98797e-23)
(-0.395783 0.0527876 -9.44762e-22)
(-0.416397 0.0491407 2.13634e-21)
(-0.43587 0.0446777 -2.07113e-21)
(-0.453896 0.0393631 1.2442e-21)
(-0.47014 0.0331941 1.29042e-21)
(-0.484219 0.0261925 -2.43819e-21)
(-0.495709 0.0184005 1.32026e-21)
(-0.50417 0.00990534 7.89296e-22)
(-0.509237 0.000907419 -6.22238e-22)
(-0.510786 -0.0081764 1.43292e-22)
(-0.508377 -0.0167551 1.19478e-22)
(-0.501115 -0.0245116 1.20335e-22)
(-0.489725 -0.0313433 -1.20918e-22)
(-0.48086 -0.0364493 1.50969e-23)
(-0.176475 0.0915528 -3.01511e-23)
(-0.193411 0.0916894 -3.87227e-23)
(-0.209594 0.090764 -5.80608e-23)
(-0.225596 0.0893778 0)
(-0.241764 0.0873813 -1.70259e-21)
(-0.257969 0.084608 1.32745e-21)
(-0.274071 0.0808983 0)
(-0.289919 0.0761067 -2.71099e-22)
(-0.305339 0.0701116 -1.44516e-22)
(-0.320137 0.0628215 2.35697e-21)
(-0.334114 0.0541871 1.21267e-22)
(-0.34706 0.0442042 -3.18468e-21)
(-0.3587 0.0329099 -1.90421e-22)
(-0.368677 0.0203802 -1.68925e-22)
(-0.376608 0.0067983 -1.78955e-22)
(-0.382127 -0.00741606 4.16774e-22)
(-0.384681 -0.0212612 -3.70862e-22)
(-0.383516 -0.0340644 -4.48749e-22)
(-0.378477 -0.0451887 -1.02488e-22)
(-0.373474 -0.0531773 1.81191e-24)
(-0.0703403 0.106156 -1.21473e-21)
(-0.0788689 0.107287 -4.40928e-22)
(-0.0864945 0.106973 -4.24525e-22)
(-0.0939045 0.105972 2.18427e-21)
(-0.101754 0.104305 2.77251e-22)
(-0.110009 0.101775 1.07042e-22)
(-0.118569 0.0981701 -4.08858e-21)
(-0.127351 0.0933178 2.06461e-21)
(-0.136278 0.0870755 2.44206e-21)
(-0.145272 0.0793162 -3.06559e-21)
(-0.154254 0.069937 -1.47073e-22)
(-0.163154 0.0588829 3.62669e-21)
(-0.17194 0.0461583 1.88839e-22)
(-0.180541 0.0318113 1.9343e-21)
(-0.188758 0.0159627 -1.35642e-21)
(-0.196029 -0.0010625 -1.26553e-21)
(-0.20215 -0.0187729 1.09639e-21)
(-0.206574 -0.0359111 0)
(-0.208399 -0.0511503 2.21256e-22)
(-0.208219 -0.0619853 2.17059e-23)
(0.0502019 0.104768 1.12981e-21)
(0.050847 0.107704 -1.60814e-21)
(0.0509462 0.108363 1.6995e-21)
(0.0519951 0.108052 0)
(0.0528309 0.107123 -1.86968e-22)
(0.0530647 0.105349 -3.87462e-21)
(0.0527535 0.102428 -8.28859e-22)
(0.0519943 0.0981663 -5.49969e-22)
(0.050818 0.0924407 5.01692e-21)
(0.0492138 0.0851337 3.53676e-22)
(0.047163 0.0761345 0)
(0.0446407 0.0653593 -3.94617e-22)
(0.0415793 0.0527769 0)
(0.0379037 0.0384336 -4.00367e-22)
(0.0335765 0.0224584 0)
(0.0285372 0.00507557 0)
(0.0229065 -0.013542 3.04225e-22)
(0.0172623 -0.0325676 -4.19509e-22)
(0.0116534 -0.0506747 3.8028e-22)
(0.00738894 -0.0647737 -1.1631e-22)
(0.19295 0.0904309 0)
(0.201207 0.0955519 -8.91096e-23)
(0.206309 0.0971576 -4.12584e-21)
(0.21332 0.0975188 3.98801e-21)
(0.221072 0.0974337 -1.73628e-22)
(0.228422 0.0965917 0)
(0.235228 0.0945502 -4.38983e-21)
(0.241653 0.091111 9.06987e-21)
(0.247733 0.0861909 -5.29091e-21)
(0.253384 0.0796907 -3.56282e-22)
(0.258504 0.071505 -3.84297e-22)
(0.262992 0.06156 -4.05536e-22)
(0.266689 0.0498292 0)
(0.269462 0.0363312 2.89052e-21)
(0.271139 0.0212211 -6.858e-21)
(0.271668 0.00472446 3.14079e-21)
(0.270636 -0.0125874 -3.31273e-22)
(0.268267 -0.0307056 -2.63652e-22)
(0.263889 -0.048557 1.1927e-22)
(0.259814 -0.0651185 -1.19811e-22)
(0.381164 0.0698189 -1.49242e-22)
(0.392411 0.0767503 0)
(0.398177 0.0786214 -9.60705e-23)
(0.40686 0.0792162 2.60746e-22)
(0.417758 0.0797417 3.32344e-22)
(0.428925 0.0795699 1.97219e-22)
(0.439923 0.0781187 2.35357e-22)
(0.450972 0.0752705 -4.49769e-21)
(0.462102 0.071007 5.40319e-21)
(0.473143 0.0652279 6.50897e-21)
(0.4839 0.0578243 -5.42229e-21)
(0.49421 0.0487373 7.9099e-22)
(0.503815 0.0379845 -3.29021e-21)
(0.512579 0.025561 4.47879e-22)
(0.520213 0.0116972 4.03372e-21)
(0.526795 -0.00332775 3.65617e-22)
(0.531197 -0.0189512 -5.23617e-22)
(0.534195 -0.0353437 5.62021e-22)
(0.533957 -0.0503774 1.0264e-21)
(0.533788 -0.0671683 6.06942e-23)
(0.634475 0.0520996 0)
(0.643017 0.0592186 -2.58513e-21)
(0.645423 0.0597004 2.67025e-21)
(0.651731 0.0596347 -1.23273e-22)
(0.661615 0.0601353 -2.99534e-22)
(0.672616 0.0598691 -1.97046e-22)
(0.684138 0.0582619 -4.50248e-22)
(0.696412 0.0554122 0)
(0.709387 0.0513417 -3.06063e-22)
(0.722786 0.0458939 -3.37916e-22)
(0.736325 0.0389425 -3.46588e-22)
(0.749801 0.030432 -7.52094e-22)
(0.762796 0.0204578 0)
(0.775268 0.00905075 0)
(0.786858 -0.00340238 -3.85171e-22)
(0.797571 -0.0171074 -3.33839e-21)
(0.805584 -0.0310413 2.31601e-21)
(0.812863 -0.0458572 -2.35431e-22)
(0.816051 -0.0576999 -5.36824e-22)
(0.820377 -0.0730042 1.55281e-22)
(0.941464 0.045628 -9.52707e-22)
(0.944528 0.049802 0)
(0.943767 0.047246 0)
(0.947618 0.0460875 -3.66296e-21)
(0.955065 0.0456716 -1.03677e-21)
(0.963799 0.0440577 1.07659e-20)
(0.973496 0.0411637 -5.72834e-21)
(0.984348 0.0373426 0)
(0.996173 0.0325938 0)
(1.00865 0.0267318 0)
(1.02151 0.0196719 1.85228e-22)
(1.03458 0.0113149 5.2758e-22)
(1.04747 0.00184503 5.80568e-21)
(1.06029 -0.0088261 -5.59323e-21)
(1.07206 -0.0202338 2.70822e-21)
(1.08287 -0.0329254 -2.35654e-21)
(1.09132 -0.0450172 0)
(1.09949 -0.0581642 1.22868e-22)
(1.10352 -0.0673562 1.50042e-22)
(1.10874 -0.0801883 0)
(1.26022 0.0447812 -1.02754e-23)
(1.26636 0.0407913 -1.79987e-21)
(1.26944 0.0369481 1.78117e-21)
(1.27419 0.0363635 0)
(1.27931 0.0357046 4.06778e-21)
(1.28441 0.0337498 -9.08814e-21)
(1.29011 0.0308283 5.01069e-21)
(1.29671 0.0270342 0)
(1.30412 0.0222318 4.05773e-21)
(1.31213 0.016236 -8.50929e-21)
(1.32062 0.00907119 4.60207e-21)
(1.32937 0.000676048 -1.63518e-22)
(1.33821 -0.0086563 0)
(1.34691 -0.0192354 -5.23842e-21)
(1.35493 -0.03029 7.41348e-21)
(1.36218 -0.0424082 -2.36928e-21)
(1.36804 -0.0532133 -1.77152e-21)
(1.37275 -0.0652277 1.21388e-21)
(1.37543 -0.0728997 6.37239e-22)
(1.37681 -0.0836362 0)
(1.60279 0.04761 0)
(1.58728 0.0418997 0)
(1.57741 0.0381717 0)
(1.57029 0.0353259 0)
(1.56502 0.0322048 0)
(1.56159 0.0286354 0)
(1.56012 0.0246481 0)
(1.56032 0.0200623 0)
(1.56192 0.0148001 0)
(1.56442 0.0087093 0)
(1.56784 0.00186342 0)
(1.57157 -0.00605565 0)
(1.57571 -0.0145256 0)
(1.57939 -0.024071 0)
(1.58316 -0.0335639 0)
(1.5855 -0.0441625 0)
(1.5879 -0.0532934 0)
(1.5876 -0.0640014 0)
(1.58829 -0.0704439 0)
(1.58427 -0.0802897 0)
(1.74501 0.0533643 0)
(1.7431 0.0504513 0)
(1.74211 0.0471955 0)
(1.74107 0.0430861 0)
(1.74011 0.0383822 0)
(1.73956 0.033298 0)
(1.73978 0.0279037 0)
(1.74052 0.0220371 0)
(1.7419 0.0156996 0)
(1.7434 0.00866806 0)
(1.74526 0.00114787 0)
(1.74668 -0.00714473 0)
(1.74853 -0.0156688 0)
(1.74922 -0.0250767 0)
(1.75037 -0.0340722 0)
(1.74919 -0.0440703 0)
(1.74916 -0.0523387 0)
(1.74508 -0.0620994 0)
(1.74418 -0.0676713 0)
(1.7363 -0.0763352 0)
(1.83733 0.0543211 0)
(1.83993 0.0502738 0)
(1.84195 0.0463426 0)
(1.84373 0.0417807 0)
(1.84577 0.0367616 0)
(1.84803 0.0314319 0)
(1.85066 0.0258597 0)
(1.85323 0.0198586 0)
(1.85597 0.0134933 0)
(1.85816 0.00648821 0)
(1.86056 -0.000861331 0)
(1.86199 -0.00881286 0)
(1.86359 -0.0167902 0)
(1.86343 -0.0255577 0)
(1.86392 -0.033707 0)
(1.86148 -0.0427959 0)
(1.86076 -0.050024 0)
(1.85528 -0.0587086 0)
(1.85403 -0.0633816 0)
(1.84489 -0.0710328 0)
(1.90278 0.0534227 0)
(1.90772 0.0480723 0)
(1.91114 0.0432117 0)
(1.91405 0.0382628 0)
(1.91731 0.0331361 0)
(1.92079 0.0277876 0)
(1.92458 0.0222744 0)
(1.9281 0.0164189 0)
(1.93163 0.0103139 0)
(1.93443 0.00371197 0)
(1.93731 -0.00303146 0)
(1.93895 -0.0104254 0)
(1.94075 -0.0176982 0)
(1.94057 -0.0256599 0)
(1.94113 -0.0328647 0)
(1.9386 -0.0409569 0)
(1.93799 -0.0471628 0)
(1.93257 -0.0548276 0)
(1.93152 -0.0587227 0)
(1.92276 -0.0655958 0)
(1.95563 0.0507175 0)
(1.96181 0.0446766 0)
(1.96622 0.0392637 0)
(1.9698 0.0341162 0)
(1.97357 0.0290054 0)
(1.97749 0.0237431 0)
(1.98166 0.018373 0)
(1.98546 0.0127285 0)
(1.98924 0.00695096 0)
(1.9922 0.000775255 0)
(1.99518 -0.00545328 0)
(1.99687 -0.0122166 0)
(1.99878 -0.018739 0)
(1.99872 -0.0258598 0)
(1.99943 -0.0321576 0)
(1.99717 -0.0392887 0)
(1.99681 -0.0445969 0)
(1.99197 -0.0513367 0)
(1.9912 -0.0546136 0)
(1.98344 -0.0607759 0)
(2.00616 0.0466407 0)
(2.01281 0.0404776 0)
(2.01775 0.0348963 0)
(2.02163 0.0296964 0)
(2.02547 0.0246625 0)
(2.02935 0.0195494 0)
(2.03344 0.0143854 0)
(2.03712 0.00900662 0)
(2.04076 0.00357739 0)
(2.04356 -0.00216273 0)
(2.04639 -0.00786495 0)
(2.04795 -0.0139893 0)
(2.04977 -0.019796 0)
(2.04973 -0.0261249 0)
(2.05047 -0.0316202 0)
(2.04846 -0.0378873 0)
(2.04827 -0.0424441 0)
(2.044 -0.0483629 0)
(2.04344 -0.0511447 0)
(2.03668 -0.0566297 0)
(2.05936 0.0420171 0)
(2.06596 0.0360688 0)
(2.07098 0.030553 0)
(2.07482 0.0254016 0)
(2.07846 0.0204823 0)
(2.082 0.0155562 0)
(2.08573 0.0106376 0)
(2.08903 0.00555874 0)
(2.09229 0.000494468 0)
(2.09473 -0.00480788 0)
(2.0972 -0.0099969 0)
(2.09846 -0.015522 0)
(2.10003 -0.0206904 0)
(2.09984 -0.0263131 0)
(2.10046 -0.0311219 0)
(2.09853 -0.0366336 0)
(2.09837 -0.0405652 0)
(2.09446 -0.0457612 0)
(2.09401 -0.0481371 0)
(2.08794 -0.0529925 0)
(2.11614 0.0374168 0)
(2.12235 0.0318047 0)
(2.12716 0.0264769 0)
(2.13079 0.0214596 0)
(2.13409 0.0167023 0)
(2.13717 0.0119956 0)
(2.14039 0.00734862 0)
(2.14317 0.00258717 0)
(2.14593 -0.00210742 0)
(2.14786 -0.00698342 0)
(2.14987 -0.0116992 0)
(2.1507 -0.0166842 0)
(2.15189 -0.0212933 0)
(2.1514 -0.0262928 0)
(2.15179 -0.0305136 0)
(2.14974 -0.0353658 0)
(2.1495 -0.0387724 0)
(2.14568 -0.0433325 0)
(2.14525 -0.0453724 0)
(2.1395 -0.0496518 0)
(2.17549 0.033036 0)
(2.18115 0.0277953 0)
(2.18561 0.0227399 0)
(2.18892 0.0179405 0)
(2.19183 0.0134021 0)
(2.19442 0.00895052 0)
(2.1971 0.00459652 0)
(2.1993 0.000167491 0)
(2.20151 -0.00416337 0)
(2.20289 -0.00862934 0)
(2.20438 -0.012907 0)
(2.2047 -0.0173995 0)
(2.20546 -0.0215099 0)
(2.20455 -0.0259536 0)
(2.20463 -0.0296636 0)
(2.2023 -0.0339356 0)
(2.20189 -0.0368959 0)
(2.19795 -0.0408948 0)
(2.19747 -0.0426535 0)
(2.19172 -0.0464089 0)
(2.23586 0.0289215 0)
(2.24091 0.0240841 0)
(2.24495 0.0193709 0)
(2.2479 0.0148622 0)
(2.25042 0.0105975 0)
(2.25252 0.00643652 0)
(2.25466 0.00239395 0)
(2.25627 -0.00168904 0)
(2.25793 -0.00565555 0)
(2.25872 -0.00972311 0)
(2.25969 -0.0135867 0)
(2.25946 -0.0176211 0)
(2.25976 -0.0212783 0)
(2.25837 -0.0252196 0)
(2.2581 -0.0284787 0)
(2.25538 -0.032235 0)
(2.25475 -0.0348096 0)
(2.25051 -0.0383094 0)
(2.24993 -0.0398282 0)
(2.24394 -0.0431076 0)
(2.29562 0.0251195 0)
(2.30006 0.0207199 0)
(2.30366 0.0163981 0)
(2.30623 0.0122333 0)
(2.30836 0.00828747 0)
(2.30997 0.00444616 0)
(2.31159 0.000732692 0)
(2.31264 -0.00299049 0)
(2.31375 -0.00658856 0)
(2.31396 -0.0102627 0)
(2.31442 -0.0137277 0)
(2.31362 -0.0173292 0)
(2.31347 -0.0205676 0)
(2.31156 -0.0240486 0)
(2.31092 -0.0269026 0)
(2.30773 -0.0301941 0)
(2.30686 -0.0324286 0)
(2.3022 -0.0354797 0)
(2.3015 -0.0367891 0)
(2.29511 -0.0396363 0)
(2.35311 0.0216751 0)
(2.35697 0.0177353 0)
(2.36012 0.0138342 0)
(2.36229 0.0100494 0)
(2.36403 0.00645752 0)
(2.36518 0.00296442 0)
(2.36633 -0.000393706 0)
(2.36684 -0.00375 0)
(2.36744 -0.00697759 0)
(2.36709 -0.0102612 0)
(2.36705 -0.0133382 0)
(2.36571 -0.0165256 0)
(2.36511 -0.0193707 0)
(2.36267 -0.0224239 0)
(2.36167 -0.0249068 0)
(2.35798 -0.0277735 0)
(2.35685 -0.0297018 0)
(2.35171 -0.0323461 0)
(2.35088 -0.033469 0)
(2.344 -0.0359244 0)
(2.40653 0.0185944 0)
(2.40983 0.0151248 0)
(2.41255 0.011663 0)
(2.41435 0.00828554 0)
(2.41574 0.00507581 0)
(2.41647 0.00195749 0)
(2.41718 -0.00102529 0)
(2.41719 -0.00400627 0)
(2.41733 -0.00685734 0)
(2.41646 -0.00975048 0)
(2.41598 -0.012446 0)
(2.41413 -0.0152333 0)
(2.41312 -0.0177036 0)
(2.41018 -0.0203539 0)
(2.40884 -0.0224914 0)
(2.40467 -0.0249658 0)
(2.40329 -0.0266139 0)
(2.39768 -0.028887 0)
(2.39672 -0.029841 0)
(2.38934 -0.0319425 0)
(2.45396 0.0158485 0)
(2.45677 0.0128535 0)
(2.4591 0.00984534 0)
(2.46057 0.00689658 0)
(2.46165 0.0040924 0)
(2.46203 0.00136852 0)
(2.46238 -0.00122921 0)
(2.46196 -0.00381882 0)
(2.46171 -0.00628633 0)
(2.46041 -0.00878869 0)
(2.45955 -0.0111077 0)
(2.45726 -0.0135054 0)
(2.45592 -0.0156153 0)
(2.45256 -0.0178829 0)
(2.45094 -0.0196954 0)
(2.44636 -0.0218043 0)
(2.44477 -0.0231928 0)
(2.43875 -0.0251257 0)
(2.43769 -0.0259249 0)
(2.42988 -0.0277073 0)
(2.4935 0.0133886 0)
(2.49589 0.0108681 0)
(2.49792 0.00832162 0)
(2.49913 0.00581576 0)
(2.5 0.00343256 0)
(2.50012 0.00111781 0)
(2.50021 -0.00108394 0)
(2.49949 -0.00327741 0)
(2.49896 -0.00535961 0)
(2.49735 -0.00747258 0)
(2.49623 -0.00942059 0)
(2.49364 -0.0114382 0)
(2.49207 -0.0132003 0)
(2.48841 -0.0151022 0)
(2.48661 -0.0166068 0)
(2.48175 -0.0183726 0)
(2.48003 -0.0195188 0)
(2.47375 -0.021137 0)
(2.47262 -0.0217931 0)
(2.46456 -0.023286 0)
(2.52366 0.0111307 0)
(2.52579 0.00907748 0)
(2.52763 0.00699328 0)
(2.52873 0.00493647 0)
(2.5295 0.00298158 0)
(2.52952 0.00108303 0)
(2.52949 -0.000720055 0)
(2.52863 -0.00251722 0)
(2.52797 -0.00421661 0)
(2.52621 -0.0059438 0)
(2.52499 -0.00752791 0)
(2.52226 -0.00917397 0)
(2.5206 -0.0106005 0)
(2.51682 -0.01215 0)
(2.51496 -0.0133623 0)
(2.51 -0.0148012 0)
(2.50825 -0.0157201 0)
(2.5019 -0.0170418 0)
(2.50077 -0.017565 0)
(2.49266 -0.0187888 0)
(2.54415 0.00891723 0)
(2.54617 0.00732155 0)
(2.548 0.00569778 0)
(2.54913 0.00409416 0)
(2.54997 0.00257238 0)
(2.55004 0.00109417 0)
(2.55006 -0.000308234 0)
(2.54922 -0.00170864 0)
(2.5486 -0.00302898 0)
(2.54687 -0.00437394 0)
(2.54569 -0.00560113 0)
(2.543 -0.00688175 0)
(2.5414 -0.00798306 0)
(2.53768 -0.00918851 0)
(2.53587 -0.0101208 0)
(2.531 -0.011242 0)
(2.52931 -0.0119458 0)
(2.52308 -0.0129797 0)
(2.52199 -0.0133783 0)
(2.51405 -0.0143414 0)
(2.55628 0.00656946 0)
(2.55835 0.00542119 0)
(2.56029 0.004256 0)
(2.56158 0.0031101 0)
(2.5626 0.0020269 0)
(2.56283 0.00097424 0)
(2.563 -2.0466e-05 0)
(2.56231 -0.00102034 0)
(2.56184 -0.00196123 0)
(2.56025 -0.00292299 0)
(2.55922 -0.00379596 0)
(2.55669 -0.0047122 0)
(2.55524 -0.00549387 0)
(2.55169 -0.00635735 0)
(2.55003 -0.00701709 0)
(2.54534 -0.00782236 0)
(2.54378 -0.00831867 0)
(2.53778 -0.00906451 0)
(2.53677 -0.00934425 0)
(2.52913 -0.0100432 0)
(2.56249 0.00411797 0)
(2.56466 0.0033892 0)
(2.56676 0.00266469 0)
(2.56823 0.00196399 0)
(2.56944 0.00131009 0)
(2.56984 0.000677289 0)
(2.57019 8.06546e-05 0)
(2.56966 -0.000519656 0)
(2.56936 -0.00108053 0)
(2.56794 -0.00165772 0)
(2.56708 -0.00217774 0)
(2.56472 -0.002729 0)
(2.56343 -0.00319366 0)
(2.56007 -0.00371458 0)
(2.55856 -0.00410536 0)
(2.55408 -0.00459304 0)
(2.55265 -0.00488555 0)
(2.54688 -0.00533927 0)
(2.54595 -0.00550284 0)
(2.53861 -0.00592916 0)
(2.56496 0.00159418 0)
(2.56722 0.00129811 0)
(2.56943 0.00101734 0)
(2.57102 0.000755447 0)
(2.57235 0.000517445 0)
(2.57287 0.000291884 0)
(2.57333 8.00908e-05 0)
(2.57291 -0.000128552 0)
(2.5727 -0.000320325 0)
(2.57139 -0.000517739 0)
(2.57063 -0.000693632 0)
(2.56839 -0.000881092 0)
(2.5672 -0.00103683 0)
(2.56395 -0.00121349 0)
(2.56253 -0.00134341 0)
(2.55818 -0.00150884 0)
(2.55682 -0.00160526 0)
(2.55121 -0.00175938 0)
(2.55032 -0.00181273 0)
(2.54315 -0.00195732 0)
(1.88354 0.157859 1.60371e-21)
(1.89884 0.144858 0)
(1.90561 0.131705 -2.34624e-22)
(1.90613 0.118612 -6.93487e-21)
(1.89743 0.105948 8.91036e-21)
(1.88628 0.0947178 0)
(1.86345 0.0831616 4.81326e-21)
(1.83072 0.0765669 0)
(1.80448 0.0628907 2.02751e-21)
(1.62561 0.0511966 -1.77806e-23)
(1.92284 0.144197 -1.92075e-21)
(1.93653 0.133472 3.42311e-22)
(1.94229 0.122226 -3.43005e-22)
(1.94164 0.112418 -1.21664e-21)
(1.93532 0.101358 -6.39357e-21)
(1.9192 0.093962 -3.39472e-22)
(1.91389 0.0834802 0)
(1.86212 0.078526 -5.46986e-21)
(1.8899 0.071826 0)
(1.74788 0.0578613 -1.48433e-21)
(1.96825 0.130446 3.98659e-21)
(1.97826 0.121643 0)
(1.98532 0.111416 -3.13596e-22)
(1.97881 0.103725 -8.35556e-22)
(1.97985 0.093996 6.74148e-21)
(1.95119 0.0880718 0)
(1.96329 0.0805786 9.77147e-21)
(1.89716 0.0737029 5.6826e-21)
(1.93368 0.0715215 0)
(1.83444 0.0604953 1.46914e-21)
(2.01754 0.118152 -1.82091e-21)
(2.0228 0.110566 7.20547e-21)
(2.03348 0.10168 0)
(2.01964 0.0947751 9.61372e-21)
(2.02822 0.0870601 4.74075e-22)
(1.99008 0.0803764 -8.57778e-22)
(2.00759 0.0757254 -9.30167e-21)
(1.9434 0.0674815 -3.01674e-22)
(1.96624 0.0659415 -7.45673e-21)
(1.89657 0.0598744 0)
(2.06876 0.107131 0)
(2.07002 0.100199 -7.0374e-21)
(2.08367 0.0930723 -7.65772e-21)
(2.06558 0.0861911 1.02475e-21)
(2.07689 0.0805687 -6.43842e-22)
(2.03789 0.0732204 -4.43954e-22)
(2.05029 0.069896 -1.29991e-20)
(1.99657 0.0627633 -6.47452e-22)
(2.00502 0.0599261 -1.26721e-21)
(1.94829 0.057165 6.46619e-21)
(2.12038 0.0970793 2.38919e-21)
(2.11978 0.0905693 4.76092e-22)
(2.13383 0.0849863 -1.29851e-21)
(2.11591 0.0782567 4.09661e-22)
(2.1253 0.0738937 -1.07681e-20)
(2.09124 0.0671427 0)
(2.09625 0.0637544 1.41857e-20)
(2.05167 0.0587676 -4.12206e-22)
(2.0525 0.0544864 1.92864e-20)
(1.99879 0.0529982 -1.43502e-20)
(2.17154 0.0877311 -2.40095e-21)
(2.17105 0.0817736 -4.36654e-21)
(2.18354 0.0771235 7.29641e-21)
(2.16833 0.0710749 -1.25603e-20)
(2.17453 0.0670586 -1.53443e-21)
(2.14611 0.0616552 -9.86601e-21)
(2.14666 0.0576517 4.60542e-22)
(2.10693 0.0542396 -8.40311e-22)
(2.10566 0.0491981 -9.94009e-21)
(2.05229 0.0480378 7.8701e-21)
(2.22184 0.0789505 0)
(2.22225 0.0737509 9.4569e-21)
(2.23292 0.0695331 -9.85887e-22)
(2.22062 0.064478 6.78261e-21)
(2.22486 0.0604011 -7.14674e-22)
(2.20037 0.0562431 1.98654e-20)
(2.19985 0.0518049 -8.56674e-21)
(2.16254 0.0491546 0)
(2.16178 0.0440999 0)
(2.10957 0.0429749 0)
(2.27074 0.0707196 0)
(2.27196 0.0663312 -8.72539e-21)
(2.28155 0.0623578 -5.46231e-22)
(2.2714 0.0582387 7.05044e-21)
(2.27535 0.0541538 1.23158e-20)
(2.25337 0.0508133 -1.12361e-20)
(2.25371 0.0463837 1.0326e-20)
(2.21862 0.0440614 -5.46236e-22)
(2.21907 0.0393832 0)
(2.16956 0.0381592 5.97929e-21)
(2.31742 0.0630217 3.17829e-22)
(2.31915 0.0593485 4.97996e-21)
(2.32845 0.0556533 7.60746e-21)
(2.31985 0.0522427 -3.88531e-22)
(2.32451 0.0483691 8.84157e-22)
(2.30474 0.0455133 -1.25717e-20)
(2.30652 0.0414187 1.1679e-20)
(2.27439 0.0392538 -5.84171e-22)
(2.27597 0.0350197 0)
(2.23059 0.0336377 -1.24636e-20)
(2.36091 0.0557982 0)
(2.36301 0.0526983 4.99471e-21)
(2.37242 0.0493783 2.46695e-22)
(2.3653 0.0464743 0)
(2.37093 0.0429892 0)
(2.3537 0.0404505 1.11693e-20)
(2.35686 0.0368145 -9.68003e-21)
(2.32857 0.0347391 -5.42307e-22)
(2.33104 0.030925 3.02464e-22)
(2.29098 0.0294088 6.70863e-21)
(2.40028 0.0489711 0)
(2.40283 0.0463312 -9.53483e-21)
(2.41236 0.0434559 -1.01335e-20)
(2.40692 0.0409397 1.49871e-21)
(2.41337 0.0379239 -9.53424e-22)
(2.39918 0.0356345 -7.51337e-22)
(2.40342 0.0324719 1.39974e-21)
(2.37969 0.0304812 8.75767e-21)
(2.38284 0.0270909 8.12754e-22)
(2.34906 0.0255082 -2.43693e-22)
(2.43474 0.0424836 0)
(2.43786 0.0402346 5.14385e-21)
(2.44734 0.037826 -5.55745e-22)
(2.4438 0.0356407 5.51155e-22)
(2.45078 0.0331055 0)
(2.43997 0.031048 0)
(2.44496 0.0283489 0)
(2.42627 0.0264804 -9.93423e-21)
(2.4299 0.0235323 9.12339e-21)
(2.40301 0.0219587 0)
(2.46349 0.0363153 0)
(2.46731 0.0344193 3.30008e-21)
(2.47648 0.0324608 4.19598e-21)
(2.47498 0.0305832 5.35379e-21)
(2.48214 0.0285046 -1.0089e-21)
(2.47487 0.0266883 6.0817e-21)
(2.48026 0.0244362 -5.31489e-21)
(2.46682 0.0227393 0)
(2.47069 0.0202348 6.65858e-22)
(2.45092 0.0187422 -8.49105e-21)
(2.48573 0.0304538 -7.45091e-22)
(2.49032 0.0288896 -2.68043e-21)
(2.49901 0.0273403 -5.4255e-21)
(2.49956 0.0257655 -3.76871e-21)
(2.50659 0.024103 0)
(2.50281 0.02255 -7.71724e-21)
(2.50824 0.0207157 7.64296e-21)
(2.49991 0.0192364 -7.1853e-22)
(2.50377 0.0171576 -4.52528e-21)
(2.49085 0.0158149 1.23931e-20)
(2.50101 0.024834 7.48916e-22)
(2.50643 0.0235922 -2.09748e-21)
(2.51458 0.0224021 1.84606e-21)
(2.51705 0.0211375 -4.49884e-21)
(2.52375 0.0198434 0)
(2.52311 0.0185808 0)
(2.52834 0.0171244 7.52096e-22)
(2.52451 0.0159054 -7.03593e-21)
(2.52823 0.0142255 -4.17921e-21)
(2.52128 0.0130991 -4.20588e-21)
(2.50995 0.0193175 0)
(2.51618 0.0184 3.43102e-21)
(2.52387 0.0175278 -1.23846e-21)
(2.52794 0.0165842 4.02164e-21)
(2.53426 0.0156151 1.06703e-21)
(2.53611 0.0146627 -8.6493e-22)
(2.54105 0.0135447 1.61139e-21)
(2.54071 0.0126149 4.86635e-21)
(2.54425 0.0113062 0)
(2.54185 0.0104428 0)
(2.51452 0.0137955 0)
(2.52137 0.0132062 1.40761e-21)
(2.52868 0.0126325 -2.53961e-21)
(2.53385 0.0120133 0)
(2.53984 0.0113439 -2.06923e-21)
(2.54335 0.0106978 -8.77003e-22)
(2.54803 0.00989131 -2.42069e-21)
(2.54997 0.0092419 -6.84822e-22)
(2.5534 0.00828052 3.63844e-22)
(2.55393 0.00766998 2.91268e-22)
(2.51697 0.00827739 0)
(2.52409 0.00800272 -1.41435e-21)
(2.5311 0.00773144 -1.26046e-21)
(2.53683 0.00743764 1.71785e-21)
(2.54256 0.00707748 9.82803e-22)
(2.54694 0.00672976 9.29316e-22)
(2.55144 0.00624141 4.05241e-21)
(2.55457 0.00584947 -2.90479e-21)
(2.55796 0.00522895 6.68049e-22)
(2.56003 0.00482623 0)
(2.51826 0.00262093 0)
(2.52543 0.00264708 6.88337e-22)
(2.53223 0.00267185 -6.543e-22)
(2.53815 0.00267916 6.14191e-22)
(2.54371 0.00263875 0)
(2.5484 0.00258137 -9.33937e-22)
(2.5528 0.00244567 7.91442e-22)
(2.55639 0.00231805 6.87944e-22)
(2.55976 0.00208412 0)
(2.56244 0.00189739 0)
(1.23583 0.279084 0)
(1.18368 0.305209 -5.78193e-20)
(1.14237 0.339697 0)
(1.10879 0.383809 -1.91836e-19)
(1.0792 0.436928 7.32739e-20)
(1.05158 0.501091 2.55873e-21)
(1.02375 0.577683 6.15171e-20)
(0.97763 0.656251 -8.74495e-21)
(0.844031 0.674998 0)
(0.480103 0.422063 5.92834e-20)
(1.32236 0.281629 1.05145e-19)
(1.2724 0.314996 5.78175e-20)
(1.23339 0.348341 -5.45604e-20)
(1.20134 0.391002 6.45997e-20)
(1.17409 0.443773 -5.40268e-20)
(1.15084 0.507609 8.71204e-21)
(1.12904 0.583193 -6.40047e-20)
(1.08753 0.658791 -1.25024e-19)
(0.946698 0.671476 -3.31945e-20)
(0.537556 0.411336 -8.64409e-20)
(1.4043 0.279709 -4.62456e-20)
(1.35978 0.315426 4.78277e-20)
(1.32363 0.348204 5.45582e-20)
(1.29261 0.38996 5.57433e-20)
(1.26718 0.44206 5.66204e-20)
(1.24797 0.5047 5.68323e-20)
(1.23157 0.577766 1.028e-20)
(1.19306 0.647884 5.26384e-20)
(1.04224 0.652112 1.80109e-20)
(0.586405 0.388378 -1.92262e-20)
(1.48462 0.275149 9.23775e-20)
(1.44431 0.310975 -4.78254e-20)
(1.4104 0.342619 0)
(1.38043 0.382761 0)
(1.35681 0.433004 0)
(1.3412 0.493079 4.06078e-20)
(1.32906 0.561938 -3.32959e-20)
(1.29099 0.624034 0)
(1.12638 0.61743 1.08467e-20)
(0.622404 0.353884 -2.11082e-20)
(1.56097 0.26754 -1.67382e-20)
(1.52345 0.302064 6.17109e-20)
(1.49129 0.332249 0)
(1.46268 0.370242 0)
(1.44106 0.417547 1.6774e-20)
(1.42859 0.473739 1.53103e-20)