/*--------------------------------*- C++ -*----------------------------------*\
| =========                 |                                                 |
| \\      /  F ield         | OpenFOAM: The Open Source CFD Toolbox           |
|  \\    /   O peration     | Version:  4.1                                   |
|   \\  /    A nd           | Web:      www.OpenFOAM.org                      |
|    \\/     M anipulation  |                                                 |
\*---------------------------------------------------------------------------*/
FoamFile
{
    version     2.0;
    format      ascii;
    class       volScalarField;
    location    "1.3";
    object      p;
}
// * * * * * * * * * * * * * * * * * * * * * * * * * * * * * * * * * * * * * //

dimensions      [0 2 -2 0 0 0 0];

internalField   nonuniform List<scalar> 
2000
(
0.253368
0.258943
0.264013
0.268709
0.27227
0.274287
0.2748
0.274009
0.271989
0.269289
0.261873
0.26763
0.273341
0.278916
0.28342
0.286375
0.287796
0.28785
0.286585
0.28475
0.271781
0.277713
0.284084
0.290547
0.295991
0.299874
0.302188
0.303091
0.302647
0.301647
0.283196
0.289289
0.296319
0.303657
0.310012
0.314785
0.317956
0.319677
0.320044
0.319869
0.296205
0.302435
0.31011
0.318284
0.325498
0.331111
0.335089
0.337591
0.338743
0.33935
0.310878
0.317211
0.325496
0.334449
0.342452
0.348835
0.353561
0.356797
0.358702
0.360047
0.327261
0.333652
0.342497
0.352148
0.360854
0.367925
0.373329
0.377243
0.379863
0.381898
0.345373
0.351766
0.361103
0.371353
0.380658
0.388325
0.394327
0.398859
0.402152
0.404821
0.3652
0.37153
0.381274
0.392008
0.401795
0.409955
0.416471
0.421553
0.425469
0.428709
0.386694
0.392885
0.402938
0.414025
0.424169
0.432711
0.439649
0.445209
0.449689
0.453442
0.220613
0.224945
0.226366
0.225868
0.223654
0.219891
0.214866
0.208861
0.202108
0.194783
0.221041
0.225419
0.226902
0.226515
0.224426
0.22079
0.215884
0.209992
0.203346
0.19611
0.221931
0.226368
0.227996
0.227824
0.225983
0.222597
0.21793
0.21226
0.205826
0.198766
0.223315
0.227834
0.22968
0.229826
0.22835
0.225333
0.221017
0.215673
0.209552
0.202754
0.225245
0.229868
0.232003
0.232565
0.231564
0.229027
0.225166
0.220245
0.21453
0.208074
0.227792
0.232543
0.23503
0.2361
0.235673
0.233715
0.230403
0.225991
0.220763
0.214725
0.231047
0.235942
0.238843
0.240502
0.240736
0.239441
0.236756
0.232926
0.228258
0.2227
0.235114
0.240166
0.243535
0.245856
0.246824
0.246256
0.244254
0.241056
0.236994
0.23196
0.240109
0.245328
0.249217
0.252267
0.254033
0.254246
0.252969
0.250425
0.246945
0.242306
0.246153
0.251547
0.256006
0.259851
0.262485
0.263559
0.263107
0.261338
0.258458
0.253883
0.187034
0.178739
0.170098
0.161215
0.15213
0.142873
0.133469
0.123945
0.114319
0.104608
0.0948261
0.0849838
0.075092
0.0651595
0.0551947
0.0452083
0.0352048
0.0251802
0.0151464
0.00510337
0.188367
0.180016
0.171305
0.162358
0.15321
0.143887
0.134417
0.124824
0.115129
0.105349
0.0954967
0.0855838
0.0756205
0.0656155
0.0555768
0.0455146
0.0354428
0.0253505
0.0152474
0.00513649
0.191039
0.182575
0.173725
0.164649
0.155375
0.145919
0.136313
0.126582
0.116748
0.106828
0.0968344
0.0867799
0.0766748
0.066528
0.0563463
0.0461324
0.0359243
0.0256949
0.0154514
0.00520002
0.195042
0.186403
0.177345
0.168081
0.158616
0.148962
0.139154
0.129219
0.119179
0.109051
0.0988479
0.0885829
0.0782657
0.067905
0.0575066
0.0470729
0.0366494
0.0262135
0.0157595
0.00529654
0.200373
0.191489
0.182159
0.172644
0.162922
0.153
0.142919
0.132709
0.122391
0.111983
0.1015
0.0909554
0.0803599
0.0697237
0.0590577
0.0483695
0.0375964
0.0268804
0.0161585
0.00542232
0.207022
0.197822
0.18816
0.178337
0.168296
0.158046
0.147632
0.137087
0.126431
0.115681
0.104855
0.093963
0.0830179
0.072029
0.0610054
0.0499575
0.0388882
0.0277685
0.0166855
0.00559149
0.214964
0.205374
0.195315
0.185108
0.174666
0.164005
0.153178
0.142216
0.131142
0.119974
0.10873
0.0974217
0.0860608
0.0746571
0.0632189
0.0517544
0.0402671
0.0287561
0.0172438
0.00576756
0.224151
0.214147
0.203662
0.193033
0.182163
0.17107
0.159802
0.148389
0.136855
0.12522
0.113502
0.101714
0.0898677
0.0779743
0.066042
0.0540788
0.0420921
0.030082
0.0180426
0.00600614
0.23429
0.223964
0.212934
0.201662
0.190172
0.178494
0.16666
0.154694
0.142619
0.130451
0.118207
0.105899
0.0935397
0.0811374
0.0687005
0.0562362
0.0437517
0.031257
0.0187601
0.00625985
0.244829
0.23528
0.224389
0.212782
0.200811
0.188588
0.176167
0.163589
0.150881
0.138065
0.125157
0.11217
0.0991181
0.086011
0.0728579
0.0596669
0.0464447
0.0331966
0.019929
0.00664989
0.256069
0.24433
0.23233
0.219824
0.207085
0.194206
0.181203
0.168092
0.154894
0.141623
0.128292
0.114909
0.101485
0.0880243
0.0745348
0.0610212
0.0474884
0.0339404
0.0203808
0.00681182
0.260693
0.247641
0.234873
0.221925
0.208856
0.195716
0.182502
0.169217
0.155869
0.142468
0.129023
0.115539
0.102022
0.0884772
0.0749091
0.0613212
0.0477168
0.0340984
0.0204682
0.00682912
0.26463
0.251031
0.237755
0.224394
0.210981
0.197548
0.184086
0.170588
0.157057
0.143496
0.129908
0.116297
0.102666
0.0890172
0.0753527
0.0616748
0.0479851
0.034285
0.0205758
0.00685827
0.268364
0.254387
0.240674
0.226932
0.213197
0.199486
0.185781
0.172071
0.158352
0.144624
0.130887
0.117141
0.103387
0.0896235
0.0758529
0.0620751
0.0482906
0.0344995
0.0207018
0.00689538
0.271792
0.257469
0.243378
0.229307
0.215288
0.201327
0.187401
0.173494
0.159601
0.145716
0.131836
0.117961
0.104087
0.0902136
0.07634
0.0624651
0.048588
0.0347079
0.0208239
0.00693099
0.274895
0.260282
0.245876
0.231525
0.217259
0.203075
0.188947
0.174859
0.160801
0.146768
0.132754
0.118754
0.104766
0.090786
0.0768127
0.0628437
0.0488769
0.0349104
0.0209425
0.00696599
0.277697
0.262844
0.248176
0.233589
0.219108
0.204724
0.190414
0.17616
0.161951
0.147778
0.133636
0.119519
0.105421
0.0913398
0.0772706
0.0632107
0.049157
0.0351069
0.0210578
0.00700056
0.280217
0.265165
0.250278
0.23549
0.220823
0.206265
0.191791
0.177386
0.163038
0.148738
0.134477
0.120249
0.106048
0.0918698
0.0777092
0.0635624
0.0494257
0.0352955
0.0211687
0.0070342
0.28247
0.267253
0.252183
0.237226
0.222399
0.207688
0.193071
0.178531
0.164057
0.149639
0.135268
0.120938
0.10664
0.0923712
0.0781246
0.0638959
0.0496806
0.0354746
0.0212741
0.00706652
0.284472
0.269118
0.253897
0.238798
0.223835
0.208992
0.194248
0.179588
0.165
0.150476
0.136005
0.12158
0.107194
0.0928405
0.0785138
0.0642086
0.0499199
0.0356427
0.0213732
0.00709724
0.286241
0.270772
0.255426
0.240209
0.22513
0.210173
0.195318
0.180552
0.165865
0.151245
0.136683
0.122173
0.107706
0.0932747
0.0788743
0.0644985
0.0501418
0.0357989
0.0214653
0.00712605
0.287789
0.272226
0.256777
0.241462
0.226286
0.211231
0.196281
0.181423
0.166647
0.151942
0.1373
0.122713
0.108172
0.0936712
0.0792038
0.0647637
0.0503449
0.0359419
0.0215498
0.0071527
0.289132
0.27349
0.257957
0.242562
0.227304
0.212167
0.197135
0.182197
0.167344
0.152565
0.137852
0.123197
0.108591
0.0940279
0.0795005
0.0650027
0.0505281
0.0360709
0.0216261
0.00717695
0.29028
0.274575
0.258973
0.243512
0.228187
0.212981
0.19788
0.182875
0.167956
0.153113
0.138339
0.123624
0.108961
0.094343
0.0797629
0.0652142
0.0506903
0.0361853
0.0216938
0.0071986
0.291246
0.275488
0.259832
0.244318
0.228938
0.213675
0.198517
0.183455
0.168481
0.153584
0.138757
0.123992
0.10928
0.0946152
0.0799897
0.0653971
0.0508308
0.0362844
0.0217525
0.00721746
0.292037
0.276238
0.26054
0.244984
0.229559
0.21425
0.199046
0.183938
0.168918
0.153977
0.139107
0.1243
0.109548
0.0948434
0.0801801
0.0655507
0.0509487
0.0363676
0.0218019
0.00723341
0.292663
0.276832
0.2611
0.245512
0.230053
0.214709
0.199468
0.184324
0.169268
0.154292
0.139388
0.124547
0.109762
0.0950269
0.0803331
0.0656743
0.0510437
0.0364347
0.0218417
0.00724631
0.293129
0.277274
0.261518
0.245906
0.230422
0.215051
0.199784
0.184613
0.169531
0.154529
0.139598
0.124733
0.109924
0.095165
0.0804484
0.0657674
0.0511152
0.0364852
0.0218717
0.00725609
0.29344
0.277569
0.261796
0.246168
0.230668
0.215279
0.199994
0.184806
0.169706
0.154686
0.139739
0.124857
0.110032
0.0952572
0.0805254
0.0658297
0.0511631
0.036519
0.0218918
0.00726283
0.293611
0.277723
0.261938
0.2463
0.230791
0.215393
0.2001
0.184902
0.169793
0.154765
0.13981
0.124919
0.110086
0.0953034
0.080564
0.0658608
0.0511871
0.036536
0.0219016
0.00726727
0.456539
0.431924
0.408063
0.385085
0.363098
0.342181
0.322393
0.303742
0.286325
0.269582
0.459251
0.435276
0.411957
0.38941
0.367732
0.347002
0.327294
0.308612
0.291213
0.274301
0.461659
0.438249
0.415424
0.393295
0.371955
0.351478
0.331946
0.313341
0.295956
0.278833
0.463699
0.440769
0.418364
0.396587
0.375532
0.355268
0.335876
0.317332
0.29995
0.282845
0.465457
0.442959
0.420936
0.399489
0.378703
0.358649
0.339407
0.320952
0.30359
0.286537
0.46698
0.444872
0.423198
0.402052
0.38152
0.361666
0.342569
0.32421
0.306861
0.289862
0.468304
0.446548
0.42519
0.404321
0.384022
0.364356
0.345396
0.327131
0.309797
0.292851
0.469457
0.44802
0.426951
0.406337
0.386253
0.366761
0.347928
0.329753
0.312432
0.29553
0.470462
0.449315
0.428511
0.408131
0.388246
0.368914
0.350197
0.332103
0.314792
0.297921
0.471337
0.450456
0.429895
0.40973
0.390027
0.370842
0.352231
0.334207
0.316901
0.300046
0.472099
0.451462
0.431123
0.411155
0.391619
0.372568
0.354051
0.336086
0.318779
0.301926
0.47276
0.452346
0.432213
0.412426
0.393043
0.374112
0.355678
0.337761
0.320446
0.303577
0.47333
0.453121
0.433177
0.413556
0.394312
0.375489
0.357128
0.339247
0.321915
0.305017
0.473818
0.453798
0.434027
0.414559
0.395441
0.376715
0.358414
0.340558
0.323201
0.306259
0.47423
0.454384
0.434772
0.415444
0.396441
0.377799
0.359548
0.341706
0.324315
0.307314
0.474573
0.454886
0.435421
0.416219
0.397319
0.378751
0.36054
0.342701
0.325266
0.308193
0.474849
0.45531
0.435978
0.416893
0.398084
0.379579
0.361397
0.343551
0.326064
0.308904
0.475063
0.455657
0.436448
0.417466
0.398739
0.380287
0.362124
0.344262
0.326712
0.309455
0.47522
0.455935
0.436834
0.417944
0.399285
0.380873
0.36272
0.34483
0.327212
0.309846
0.475315
0.45616
0.437176
0.418384
0.399797
0.381424
0.36327
0.345337
0.327625
0.310119
0.703859
0.700036
0.694532
0.688746
0.682798
0.676527
0.669843
0.662948
0.657142
0.656567
0.682686
0.678041
0.671785
0.665591
0.659233
0.65238
0.644933
0.637144
0.630404
0.628978
0.659716
0.654582
0.648041
0.641567
0.634792
0.627355
0.619166
0.610518
0.602891
0.600648
0.635169
0.629918
0.62336
0.616723
0.60961
0.601667
0.592811
0.583388
0.574948
0.571948
0.609761
0.604506
0.59802
0.591295
0.583925
0.575566
0.566146
0.556062
0.546906
0.543235
0.5838
0.578606
0.572269
0.565532
0.557992
0.549316
0.539448
0.52884
0.519073
0.51484
0.557509
0.552446
0.546335
0.539669
0.532052
0.523168
0.512978
0.501995
0.491743
0.487068
0.531117
0.526257
0.520447
0.513936
0.50634
0.497366
0.486979
0.47573
0.465297
0.460108
0.504858
0.500259
0.494824
0.488554
0.481076
0.47213
0.461659
0.450295
0.439919
0.434293
0.47898
0.474629
0.469676
0.46373
0.456468
0.447661
0.437288
0.425986
0.41573
0.409769
0.832114
0.827031
0.822591
0.818882
0.815972
0.81393
0.812793
0.812538
0.813677
0.818963
0.829761
0.824584
0.820105
0.816342
0.81335
0.8112
0.809931
0.809519
0.810468
0.815656
0.825057
0.819702
0.81515
0.811279
0.808124
0.805761
0.804225
0.803497
0.804113
0.809043
0.818016
0.812418
0.807763
0.803735
0.800343
0.797668
0.79574
0.79455
0.794689
0.799228
0.808667
0.802779
0.798
0.79377
0.790073
0.786999
0.784567
0.782782
0.782306
0.786338
0.797039
0.790841
0.78593
0.781462
0.777406
0.773857
0.770825
0.76833
0.76712
0.770543
0.783205
0.776689
0.771647
0.766914
0.762453
0.758372
0.754663
0.751364
0.749323
0.75205
0.767144
0.76036
0.755226
0.750227
0.745343
0.740695
0.736257
0.732089
0.729146
0.731105
0.749074
0.74204
0.736847
0.731564
0.726243
0.721014
0.715818
0.710744
0.706854
0.707993
0.728101
0.721711
0.716575
0.71103
0.705325
0.699541
0.693589
0.687596
0.682743
0.683031
0.995293
0.985966
0.976704
0.967472
0.958279
0.949142
0.940076
0.931093
0.922192
0.91342
0.904795
0.896332
0.888051
0.879978
0.87214
0.864568
0.857295
0.850358
0.843796
0.837663
0.995254
0.985848
0.976503
0.967187
0.957909
0.948686
0.939532
0.930456
0.921467
0.912603
0.90388
0.895315
0.886926
0.878739
0.870779
0.863073
0.855656
0.848559
0.841815
0.835481
0.995179
0.985612
0.976102
0.96662
0.957173
0.947779
0.938448
0.929183
0.920023
0.910978
0.902061
0.893291
0.884687
0.87627
0.868064
0.860093
0.852385
0.844967
0.837858
0.831114
0.995065
0.985257
0.975498
0.965766
0.956067
0.946418
0.936826
0.927278
0.917851
0.908531
0.899326
0.890253
0.88133
0.872574
0.864004
0.855638
0.847497
0.839601
0.831949
0.824571
0.994915
0.98479
0.974707
0.964649
0.954623
0.94464
0.934702
0.924818
0.915036
0.905344
0.895752
0.886275
0.876926
0.867717
0.85866
0.849767
0.841047
0.83251
0.824131
0.815874
0.994722
0.984194
0.973697
0.963221
0.952775
0.942362
0.931936
0.921655
0.911445
0.901299
0.891233
0.881261
0.871389
0.861625
0.851972
0.842431
0.832999
0.823674
0.814409
0.805032
0.994502
0.983519
0.972561
0.961627
0.950713
0.939761
0.928917
0.918134
0.90739
0.896698
0.886069
0.875507
0.865013
0.854585
0.844216
0.833893
0.823594
0.813297
0.802948
0.79215
0.994218
0.982649
0.971097
0.95956
0.947978
0.936495
0.925084
0.913693
0.90233
0.891005
0.87972
0.868472
0.857254
0.846056
0.83486
0.823643
0.812365
0.800988
0.789466
0.777108
0.993974
0.981899
0.969787
0.957621
0.94555
0.933516
0.921483
0.909462
0.897456
0.885467
0.873489
0.861513
0.849524
0.837501
0.825409
0.8132
0.8008
0.788111
0.775067
0.760567
0.993508
0.980504
0.967534
0.954646
0.941767
0.928891
0.916024
0.903164
0.890307
0.877446
0.864568
0.851655
0.838682
0.825609
0.812387
0.798948
0.785205
0.771059
0.756451
0.740518
0.993348
0.980041
0.966727
0.953404
0.940071
0.92673
0.913375
0.899998
0.886587
0.873129
0.859602
0.845979
0.832221
0.818278
0.804084
0.789548
0.774546
0.758898
0.742331
0.724056
0.993259
0.979776
0.966286
0.952786
0.939272
0.925737
0.912173
0.898569
0.884914
0.871189
0.857372
0.843432
0.82933
0.815018
0.800429
0.785479
0.770061
0.754029
0.737215
0.719413
0.993177
0.979522
0.965855
0.952175
0.938474
0.924743
0.910971
0.897148
0.883258
0.869281
0.855195
0.840969
0.826565
0.811935
0.79702
0.781748
0.76603
0.749761
0.732817
0.715135
0.993094
0.979264
0.965416
0.95155
0.937657
0.923725
0.909743
0.895698
0.881574
0.86735
0.853002
0.838501
0.823811
0.808887
0.793677
0.77812
0.762145
0.745673
0.728611
0.710971
0.993011
0.979011
0.964989
0.950944
0.936867
0.922745
0.908565
0.894314
0.879973
0.865524
0.850941
0.836198
0.821259
0.806086
0.790634
0.774851
0.75868
0.742065
0.724935
0.707334
0.992932
0.978769
0.964579
0.950365
0.936115
0.921814
0.907451
0.893009
0.878471
0.863819
0.849029
0.834073
0.818923
0.803543
0.787895
0.771936
0.755621
0.738908
0.721742
0.704173
0.992857
0.978539
0.964191
0.949816
0.935403
0.920936
0.906402
0.891785
0.877069
0.862235
0.84726
0.832121
0.816791
0.801237
0.785429
0.769332
0.752909
0.736128
0.718946
0.701412
0.992786
0.978321
0.963825
0.9493
0.934735
0.920114
0.905423
0.890648
0.875771
0.860775
0.845639
0.83034
0.814856
0.799158
0.78322
0.767013
0.750509
0.733683
0.716501
0.699007
0.992719
0.978119
0.963484
0.94882
0.934116
0.919354
0.90452
0.889601
0.874581
0.859441
0.844163
0.828728
0.813113
0.797295
0.781252
0.76496
0.748397
0.731542
0.714371
0.696922
0.992658
0.977931
0.96317
0.948379
0.933546
0.918656
0.903695
0.888647
0.873499
0.858233
0.842832
0.827279
0.811554
0.795638
0.77951
0.763152
0.746545
0.729675
0.712522
0.695119
0.992601
0.97776
0.962883
0.947977
0.933029
0.918024
0.902947
0.887786
0.872524
0.857149
0.841642
0.825989
0.810171
0.794173
0.777977
0.761568
0.744931
0.728055
0.710924
0.693569
0.99255
0.977606
0.962625
0.947616
0.932565
0.917457
0.902278
0.887016
0.871657
0.856186
0.840589
0.82485
0.808956
0.79289
0.77664
0.760192
0.743534
0.726658
0.709553
0.692243
0.992505
0.977469
0.962396
0.947295
0.932153
0.916955
0.901688
0.886338
0.870894
0.855342
0.839667
0.823857
0.807899
0.791779
0.775485
0.759007
0.742336
0.725465
0.708386
0.691119
0.992465
0.977349
0.962196
0.947015
0.931794
0.916518
0.901174
0.88575
0.870234
0.854612
0.838873
0.823004
0.806993
0.790828
0.774501
0.758001
0.741321
0.724457
0.707404
0.690176
0.992431
0.977247
0.962025
0.946776
0.931488
0.916146
0.900737
0.88525
0.869673
0.853994
0.838201
0.822284
0.80623
0.790031
0.773676
0.75716
0.740476
0.72362
0.70659
0.689397
0.992402
0.977161
0.961883
0.946578
0.931234
0.915837
0.900375
0.884837
0.86921
0.853485
0.837649
0.821692
0.805605
0.789378
0.773003
0.756475
0.739789
0.722942
0.705932
0.688769
0.992379
0.977093
0.961769
0.94642
0.931032
0.915592
0.900088
0.884508
0.868843
0.853081
0.837211
0.821224
0.805111
0.788863
0.772474
0.755937
0.73925
0.722411
0.705419
0.68828
0.992362
0.977042
0.961685
0.946301
0.93088
0.915408
0.899873
0.884263
0.868569
0.85278
0.836886
0.820877
0.804745
0.788482
0.772082
0.75554
0.738853
0.72202
0.705042
0.687922
0.992351
0.977008
0.961628
0.946223
0.93078
0.915286
0.89973
0.884101
0.868388
0.852581
0.83667
0.820647
0.804502
0.78823
0.771823
0.755278
0.738591
0.721763
0.704794
0.687687
0.992345
0.976991
0.9616
0.946183
0.93073
0.915225
0.899659
0.884019
0.868297
0.852481
0.836563
0.820532
0.804382
0.788105
0.771695
0.755148
0.738461
0.721635
0.704671
0.68757
0.704276
0.682441
0.659744
0.635699
0.610751
0.585251
0.559399
0.5334
0.507463
0.481779
0.700755
0.678007
0.655416
0.632206
0.608163
0.583597
0.558698
0.533629
0.508575
0.483714
0.696553
0.674142
0.652094
0.629656
0.606364
0.582532
0.558374
0.53404
0.5097
0.48552
0.69262
0.67077
0.649234
0.627407
0.604756
0.581565
0.558053
0.534357
0.510629
0.487024
0.689132
0.667823
0.646758
0.625434
0.603328
0.58069
0.557736
0.534593
0.511402
0.488308
0.686062
0.665248
0.644606
0.6237
0.602058
0.579899
0.557429
0.534769
0.512051
0.48941
0.683378
0.663002
0.642726
0.622167
0.600919
0.579175
0.557127
0.534892
0.512592
0.490354
0.681046
0.661046
0.641075
0.620804
0.599891
0.578507
0.55683
0.53497
0.513041
0.491165
0.679028
0.659343
0.639621
0.619586
0.598959
0.577887
0.556534
0.535006
0.51341
0.491859
0.677285
0.657859
0.638335
0.618494
0.598107
0.577306
0.556239
0.535006
0.513709
0.492452
0.675786
0.656565
0.637196
0.617509
0.597325
0.576759
0.555944
0.534975
0.513946
0.492956
0.674499
0.655437
0.636183
0.616618
0.596605
0.576241
0.555648
0.534914
0.514128
0.493381
0.673401
0.654455
0.635282
0.61581
0.595937
0.575748
0.555351
0.534827
0.514261
0.493735
0.672471
0.653601
0.634478
0.615075
0.595316
0.575277
0.555051
0.534716
0.514348
0.494024
0.671692
0.65286
0.633762
0.614404
0.594737
0.574825
0.554749
0.534583
0.514394
0.494254
0.67105
0.652222
0.633125
0.613791
0.594195
0.574389
0.554444
0.534427
0.514401
0.494429
0.670532
0.651677
0.632558
0.613231
0.593686
0.573967
0.554135
0.534251
0.514372
0.494553
0.670133
0.65122
0.632059
0.612722
0.59321
0.573559
0.553823
0.534056
0.514307
0.494627
0.669842
0.650843
0.631625
0.612265
0.592771
0.573173
0.553516
0.533849
0.514216
0.49466
0.669649
0.650515
0.631189
0.611769
0.592266
0.572705
0.553121
0.533556
0.514043
0.494619
)
;

boundaryField
{
    bottom
    {
        type            symmetryPlane;
    }
    right
    {
        type            fixedValue;
        value           uniform 0;
    }
    top
    {
        type            symmetryPlane;
    }
    left
    {
        type            fixedValue;
        value           uniform 1;
    }
    cylinder
    {
        type            zeroGradient;
    }
    defaultFaces
    {
        type            empty;
    }
}


// ************************************************************************* //
