/*--------------------------------*- C++ -*----------------------------------*\
| =========                 |                                                 |
| \\      /  F ield         | OpenFOAM: The Open Source CFD Toolbox           |
|  \\    /   O peration     | Version:  4.1                                   |
|   \\  /    A nd           | Web:      www.OpenFOAM.org                      |
|    \\/     M anipulation  |                                                 |
\*---------------------------------------------------------------------------*/
FoamFile
{
    version     2.0;
    format      ascii;
    class       volScalarField;
    location    "14.8";
    object      p;
}
// * * * * * * * * * * * * * * * * * * * * * * * * * * * * * * * * * * * * * //

dimensions      [0 2 -2 0 0 0 0];

internalField   nonuniform List<scalar> 
2000
(
-0.147573
-0.137117
-0.127747
-0.119053
-0.111154
-0.103815
-0.096454
-0.0897601
-0.0817603
-0.0785332
-0.166734
-0.152563
-0.140773
-0.129929
-0.119737
-0.109951
-0.100345
-0.0911174
-0.0815739
-0.0747731
-0.1898
-0.171339
-0.156864
-0.143329
-0.129889
-0.116609
-0.10365
-0.0912659
-0.0792435
-0.0685782
-0.216662
-0.193362
-0.175779
-0.158488
-0.140397
-0.122391
-0.105201
-0.0891989
-0.0741279
-0.0611672
-0.246259
-0.217853
-0.19635
-0.173631
-0.149294
-0.125517
-0.103543
-0.0836424
-0.0657309
-0.0501675
-0.276599
-0.243177
-0.216218
-0.186057
-0.154163
-0.124049
-0.0971208
-0.0734281
-0.0526441
-0.0345262
-0.304497
-0.266661
-0.232045
-0.192637
-0.152557
-0.116125
-0.0844723
-0.0572233
-0.033717
-0.0130431
-0.326003
-0.284518
-0.240181
-0.190459
-0.14233
-0.100098
-0.0642248
-0.0338248
-0.0077493
0.0153277
-0.337099
-0.292377
-0.237222
-0.177185
-0.121782
-0.0745989
-0.0352146
-0.00217598
0.0261436
0.0511533
-0.334293
-0.286305
-0.220309
-0.151109
-0.089722
-0.0386483
0.00341682
0.0384816
0.0685739
0.0948247
-0.0683686
-0.0721183
-0.0734071
-0.0739715
-0.0741329
-0.0738372
-0.0730627
-0.0718285
-0.0702174
-0.0684354
-0.0702434
-0.0737555
-0.0749057
-0.0753899
-0.0754853
-0.0751178
-0.074251
-0.0728746
-0.0710353
-0.0691037
-0.0738556
-0.0768648
-0.0777566
-0.0780626
-0.0780053
-0.0774788
-0.0764162
-0.0747701
-0.0724592
-0.0699371
-0.0789108
-0.0811931
-0.0816765
-0.0816775
-0.0813602
-0.0805733
-0.079202
-0.0771921
-0.074186
-0.0694817
-0.0850927
-0.0864537
-0.0863412
-0.0858681
-0.0851552
-0.0840058
-0.0822149
-0.0796342
-0.0757083
-0.0699591
-0.0921576
-0.0924114
-0.0914617
-0.0902875
-0.0889964
-0.0873596
-0.0850755
-0.0818904
-0.0771466
-0.0685599
-0.100046
-0.0989656
-0.096887
-0.0947266
-0.0925973
-0.0902861
-0.0873739
-0.0834929
-0.0787197
-0.0663776
-0.108993
-0.106184
-0.102739
-0.0992614
-0.0960022
-0.0927882
-0.0890964
-0.0843377
-0.0800276
-0.0652789
-0.119394
-0.114561
-0.109391
-0.104329
-0.0997308
-0.0954101
-0.0907787
-0.0852857
-0.0805519
-0.0666725
-0.132
-0.124649
-0.117483
-0.110686
-0.104565
-0.0989352
-0.0931299
-0.0873249
-0.0810537
-0.0721624
-0.0666521
-0.0644318
-0.0619424
-0.0592365
-0.0563201
-0.0532086
-0.0499196
-0.046471
-0.042893
-0.0392083
-0.0354321
-0.0315884
-0.0277041
-0.0238085
-0.0199315
-0.0161032
-0.0123539
-0.00870996
-0.00516945
-0.0016959
-0.0677083
-0.0654039
-0.0628073
-0.0600317
-0.0570525
-0.0538777
-0.0505224
-0.0470029
-0.043373
-0.039623
-0.0357754
-0.0318556
-0.0278914
-0.0239139
-0.019957
-0.0160566
-0.01225
-0.00856896
-0.00502117
-0.0016119
-0.0696184
-0.0670748
-0.0643166
-0.0614338
-0.0583505
-0.0550691
-0.0516041
-0.0480041
-0.0442488
-0.0403684
-0.0363883
-0.0323308
-0.0282236
-0.0241
-0.0199997
-0.0159683
-0.012056
-0.0083078
-0.00474615
-0.00144292
-0.07334
-0.068859
-0.0660648
-0.0631297
-0.0599046
-0.0564587
-0.0529159
-0.0491943
-0.0452935
-0.0412649
-0.0371272
-0.0329017
-0.0286181
-0.0243141
-0.0200362
-0.0158405
-0.0117934
-0.00796095
-0.00438778
-0.00120508
-0.07423
-0.0716831
-0.0680377
-0.0646896
-0.061452
-0.0580348
-0.0543183
-0.0504064
-0.0463523
-0.0421649
-0.0378565
-0.0334514
-0.0289832
-0.0244942
-0.0200369
-0.0156778
-0.0114972
-0.00758798
-0.00403159
-0.000989893
-0.075853
-0.0743233
-0.0699842
-0.0662756
-0.062879
-0.0593131
-0.0554866
-0.0514556
-0.0472629
-0.0429232
-0.0384515
-0.0338762
-0.029236
-0.0245803
-0.0199682
-0.0154768
-0.0111959
-0.00724431
-0.00373913
-0.000828429
-0.0764927
-0.076907
-0.0717847
-0.0672085
-0.0637002
-0.0602073
-0.0563284
-0.0521723
-0.0478534
-0.0433903
-0.0387868
-0.0340738
-0.0292975
-0.0245171
-0.0197972
-0.0152286
-0.0109036
-0.0069655
-0.00354481
-0.000773554
-0.0768967
-0.0787274
-0.0731593
-0.0679629
-0.064323
-0.0607834
-0.0567783
-0.0524882
-0.0480616
-0.0435004
-0.0387971
-0.0339894
-0.0291289
-0.0242853
-0.0195211
-0.0149449
-0.0106373
-0.00677159
-0.00344406
-0.000825362
-0.0773326
-0.0787047
-0.0727057
-0.0675516
-0.0639904
-0.0603533
-0.0562674
-0.051989
-0.0476017
-0.0430661
-0.0383761
-0.0335859
-0.0287471
-0.0239416
-0.0192219
-0.0147189
-0.0104843
-0.00672824
-0.00346549
-0.00095682
-0.0804655
-0.0780939
-0.0720205
-0.0674956
-0.0636255
-0.0594778
-0.0551848
-0.050907
-0.0465736
-0.0421157
-0.0375287
-0.032867
-0.028165
-0.0235101
-0.0189361
-0.0145919
-0.0104908
-0.00686869
-0.00364962
-0.00114537
-0.0695654
-0.0669812
-0.0652048
-0.0628149
-0.0595735
-0.0558896
-0.0520748
-0.0481821
-0.0441522
-0.0399725
-0.0356584
-0.0312741
-0.0268487
-0.0224785
-0.0181821
-0.0141147
-0.0102555
-0.00684389
-0.00373687
-0.00126722
-0.0647682
-0.0627773
-0.0606687
-0.0579415
-0.0547305
-0.0513504
-0.0479132
-0.044379
-0.0406945
-0.0368699
-0.0329249
-0.0289219
-0.0248822
-0.0208979
-0.0169763
-0.0132637
-0.00971996
-0.00656919
-0.00363823
-0.00127012
-0.0560943
-0.056219
-0.0543367
-0.0515404
-0.0486333
-0.0458095
-0.0429566
-0.0399536
-0.0367533
-0.0333902
-0.0298973
-0.0263401
-0.0227377
-0.0191763
-0.0156588
-0.0123166
-0.00910607
-0.00622188
-0.00350017
-0.00123432
-0.0456686
-0.0480033
-0.0470105
-0.0446217
-0.0421904
-0.0399766
-0.0377591
-0.0353447
-0.0326766
-0.0298074
-0.026787
-0.0236879
-0.0205297
-0.0173919
-0.0142757
-0.0112975
-0.00841672
-0.005798
-0.00330012
-0.00115837
-0.0346022
-0.038594
-0.038863
-0.0373039
-0.03551
-0.0339215
-0.032343
-0.0305432
-0.0284406
-0.0260914
-0.0235597
-0.0209275
-0.0182174
-0.0155047
-0.0127879
-0.0101734
-0.00762243
-0.00528088
-0.00302481
-0.00105833
-0.0229698
-0.0283806
-0.0300976
-0.0296189
-0.0285912
-0.027656
-0.0267216
-0.025556
-0.024049
-0.0222477
-0.0202231
-0.0180689
-0.0158119
-0.0135276
-0.0112105
-0.00896346
-0.00674457
-0.00469678
-0.00269906
-0.000955441
-0.0110457
-0.0178433
-0.0209896
-0.0216552
-0.0214722
-0.0212321
-0.0209565
-0.0204381
-0.0195461
-0.0183131
-0.0168107
-0.0151438
-0.0133435
-0.0114903
-0.00957277
-0.00769715
-0.0058127
-0.00407245
-0.0023442
-0.000854963
0.000715623
-0.00732759
-0.0117459
-0.0135165
-0.014218
-0.0147167
-0.0151196
-0.0152544
-0.0149837
-0.0143291
-0.0133584
-0.0121848
-0.0108433
-0.00942157
-0.0079027
-0.00639985
-0.00485139
-0.00342579
-0.00197368
-0.000754084
0.0120402
0.00299272
-0.00251761
-0.00533353
-0.00693959
-0.00820951
-0.00930272
-0.010086
-0.0104303
-0.0103524
-0.00991461
-0.00923436
-0.00834945
-0.00735482
-0.00623084
-0.00509662
-0.00388317
-0.00277066
-0.00159788
-0.000647444
0.0227581
0.0129905
0.00654427
0.00272909
0.000207473
-0.00184641
-0.00362324
-0.00503464
-0.00597331
-0.00645657
-0.00654174
-0.00634497
-0.00590742
-0.00532773
-0.00458938
-0.00381203
-0.00292838
-0.00211829
-0.00122433
-0.000529013
0.032697
0.0225067
0.015277
0.0104942
0.00705432
0.00422506
0.00179257
-0.000209037
-0.00170636
-0.00272082
-0.00330583
-0.00357106
-0.00356212
-0.00337653
-0.00300756
-0.00256785
-0.00200336
-0.00147776
-0.000857924
-0.000395512
0.0416879
0.0313595
0.0234806
0.0177824
0.0134524
0.00988298
0.00684079
0.0042997
0.00229131
0.000787313
-0.0002628
-0.000958399
-0.0013503
-0.00153078
-0.001508
-0.00138144
-0.0011196
-0.000857266
-0.000502099
-0.000250286
0.0496403
0.0393935
0.0309955
0.0244611
0.0193008
0.0150478
0.0114538
0.00843142
0.00596706
0.00402277
0.00255067
0.00146295
0.000704736
0.000190016
-0.000104815
-0.000265245
-0.000284203
-0.000265314
-0.000160216
-0.000104854
0.0565846
0.0465251
0.0377263
0.0304624
0.0245602
0.0196939
0.0156096
0.0121638
0.00929957
0.00696613
0.00511889
0.0036793
0.00259238
0.00177523
0.0011944
0.000771471
0.000497761
0.000288409
0.000163057
2.391e-05
0.0626401
0.0527397
0.0436309
0.0357704
0.0292379
0.0238356
0.0193192
0.0155008
0.0122881
0.00961379
0.00743772
0.00568504
0.00430711
0.00321724
0.00238294
0.00171952
0.00121971
0.000793456
0.000461256
0.000121069
0.0678929
0.0580346
0.0486835
0.0403724
0.0333378
0.0274823
0.022588
0.0184412
0.0149263
0.0119562
0.0094964
0.00746842
0.00583693
0.00450337
0.0034485
0.00256653
0.00187066
0.00123985
0.000726986
0.000181593
0.0722985
0.0623635
0.0528298
0.0442116
0.0368091
0.0305907
0.0253769
0.0209476
0.017177
0.0139576
0.0112611
0.0089986
0.00715317
0.00560851
0.00436773
0.00329377
0.00243345
0.00161785
0.000952711
0.000212283
0.075754
0.0656758
0.0560054
0.0471937
0.0395438
0.0330579
0.0275948
0.0229393
0.018967
0.0155516
0.0126705
0.0102218
0.00820766
0.00649271
0.0051051
0.00387471
0.00288474
0.00191595
0.00113008
0.000224426
0.078227
0.0679899
0.0582016
0.0492596
0.0414497
0.0347838
0.029147
0.0243316
0.0202182
0.0166665
0.0136582
0.0110796
0.00894809
0.00711306
0.00562291
0.00428178
0.00320104
0.00212312
0.00125156
0.000227488
0.0796758
0.0693202
0.0594215
0.0503827
0.0424749
0.0357063
0.0299714
0.0250675
0.0208768
0.0172528
0.0141765
0.0115303
0.00933571
0.00743884
0.00589302
0.00449607
0.00336504
0.00223364
0.00131299
0.000232327
0.115572
0.0721613
0.0357731
0.0061552
-0.0169786
-0.0344754
-0.0471644
-0.0567204
-0.0626659
-0.0746859
0.132787
0.0908409
0.0553107
0.0256581
0.00185794
-0.0174528
-0.0317492
-0.0451671
-0.0525522
-0.0671437
0.148891
0.108691
0.0744171
0.045015
0.0209504
-0.000143946
-0.0159364
-0.0323821
-0.0406092
-0.0549
0.163773
0.125167
0.0919938
0.062718
0.0384974
0.0161852
-0.00033171
-0.0177504
-0.0266504
-0.0412688
0.177442
0.140169
0.107892
0.0787345
0.0545403
0.031769
0.0150349
-0.00265055
-0.0129126
-0.0283767
0.189973
0.153854
0.122393
0.0935073
0.0695409
0.0467389
0.0297129
0.011612
3.59784e-05
-0.0157944
0.201417
0.166343
0.135676
0.107205
0.083529
0.0607936
0.0433964
0.0250258
0.0128038
-0.00293332
0.211783
0.177662
0.147749
0.119752
0.0963473
0.073751
0.0561695
0.0379118
0.0254308
0.00992649
0.221051
0.187792
0.158558
0.131056
0.107925
0.0856125
0.0680538
0.05013
0.0373898
0.0222477
0.229228
0.196748
0.168098
0.14111
0.118262
0.0963544
0.0788602
0.0613194
0.0482707
0.0336611
0.236317
0.204581
0.176424
0.149962
0.127379
0.105917
0.0884341
0.071277
0.0579635
0.0439307
0.242385
0.211327
0.183618
0.157689
0.135339
0.114301
0.0968058
0.0799927
0.0665102
0.0529049
0.247516
0.217082
0.189811
0.164392
0.142271
0.121595
0.10413
0.0875554
0.0740118
0.0605854
0.251851
0.221995
0.195158
0.170195
0.148324
0.127933
0.110569
0.0941099
0.0806027
0.0671683
0.255521
0.226194
0.199778
0.175208
0.153608
0.133439
0.116222
0.0998247
0.0863982
0.0729494
0.258611
0.229761
0.203731
0.179511
0.158164
0.138206
0.121119
0.104833
0.0914456
0.0781257
0.261143
0.232727
0.207019
0.183131
0.161981
0.142268
0.125246
0.109167
0.0957233
0.0826622
0.263055
0.235041
0.209592
0.186035
0.165021
0.145589
0.128572
0.112756
0.0991756
0.086375
0.264211
0.236568
0.211338
0.188103
0.167205
0.148059
0.131035
0.115471
0.101747
0.0891197
0.264548
0.23715
0.212072
0.189083
0.168293
0.149374
0.132381
0.117006
0.103221
0.0906973
0.762841
0.764
0.756929
0.743307
0.724512
0.70018
0.667736
0.623561
0.569003
0.537934
0.707901
0.704753
0.689012
0.668265
0.643803
0.613414
0.573528
0.520294
0.455115
0.416028
0.646327
0.63724
0.61483
0.588557
0.55888
0.522432
0.475197
0.413293
0.338092
0.291504
0.574425
0.560901
0.534712
0.504775
0.470778
0.428871
0.375006
0.305471
0.221352
0.168549
0.497604
0.480557
0.45183
0.419145
0.381521
0.33493
0.275508
0.2
0.108479
0.0516459
0.420384
0.40002
0.369322
0.334464
0.293847
0.243383
0.179416
0.0998129
0.00304254
-0.0538323
0.345154
0.32177
0.289714
0.253336
0.210472
0.157124
0.08969
0.00636681
-0.0874303
-0.145291
0.273529
0.24778
0.215131
0.178038
0.133832
0.078889
0.00982737
-0.0737328
-0.163081
-0.220324
0.207067
0.179908
0.147522
0.110553
0.0660078
0.0108624
-0.0575092
-0.138687
-0.22228
-0.277091
0.146767
0.119865
0.088466
0.0520642
0.00824777
-0.0455228
-0.111281
-0.18766
-0.263416
-0.314878
1.06216
1.07075
1.08078
1.09228
1.10527
1.11961
1.13484
1.14959
1.16291
1.18116
1.05904
1.06699
1.07653
1.0875
1.0998
1.11331
1.12752
1.14102
1.1529
1.17032
1.05248
1.05912
1.06771
1.07763
1.08859
1.10043
1.11258
1.12358
1.13273
1.1483
1.04187
1.04656
1.05374
1.06211
1.07109
1.08047
1.0896
1.0969
1.102
1.11473
1.02643
1.02849
1.03385
1.04021
1.04664
1.05282
1.058
1.06047
1.0602
1.06911
1.00522
1.00396
1.0071
1.01109
1.01444
1.01675
1.01714
1.01373
1.00684
1.01096
0.97733
0.972124
0.972842
0.974176
0.973961
0.971745
0.96655
0.956287
0.941602
0.93999
0.941036
0.931469
0.929966
0.928653
0.924558
0.917327
0.905927
0.887994
0.864449
0.85627
0.895915
0.882312
0.87925
0.874949
0.866321
0.853527
0.83539
0.809116
0.775802
0.760395
0.836037
0.823802
0.82093
0.813208
0.799559
0.780897
0.755644
0.720516
0.676724
0.653636
1.00023
1.00099
1.00234
1.00388
1.00541
1.00696
1.0086
1.01037
1.01229
1.01441
1.01674
1.0193
1.02215
1.02534
1.02891
1.03293
1.03745
1.04256
1.04832
1.05483
1.00023
1.00099
1.00231
1.0038
1.00528
1.00679
1.00838
1.0101
1.01196
1.01401
1.01626
1.01873
1.02148
1.02454
1.02796
1.03181
1.03612
1.04097
1.0464
1.05252
1.00024
1.00098
1.00221
1.00361
1.005
1.00642
1.00791
1.00952
1.01126
1.01316
1.01523
1.01752
1.02004
1.02284
1.02595
1.02942
1.03328
1.03758
1.04232
1.0476
1.00026
1.00094
1.00203
1.00328
1.00453
1.0058
1.00713
1.00857
1.01011
1.01176
1.01356
1.01553
1.01769
1.02006
1.02266
1.02551
1.02862
1.03201
1.03561
1.03951
1.00025
1.00085
1.00175
1.00278
1.00383
1.00488
1.00597
1.00713
1.00839
1.0097
1.01109
1.0126
1.01421
1.01594
1.01777
1.01971
1.0217
1.02375
1.02564
1.02749
1.00022
1.00069
1.00133
1.00208
1.00285
1.00361
1.00439
1.0052
1.006
1.00681
1.00766
1.00853
1.00939
1.01022
1.01098
1.01163
1.01207
1.01222
1.01175
1.01068
1.00015
1.00043
1.00076
1.00115
1.00154
1.00192
1.00228
1.00257
1.00282
1.00301
1.00313
1.00314
1.003
1.00262
1.00194
1.00083
0.999159
0.996758
0.993208
0.988346
1.00001
1.00003
1
0.999958
0.9999
0.999782
0.999563
0.999242
0.998803
0.998208
0.997414
0.996341
0.994925
0.993025
0.990547
0.987225
0.982902
0.977079
0.96935
0.958881
0.99979
0.999412
0.998984
0.998498
0.997908
0.997176
0.996291
0.99523
0.993958
0.992394
0.990476
0.988067
0.98509
0.981284
0.976586
0.970455
0.96294
0.952827
0.940319
0.922442
0.999613
0.998695
0.997828
0.996879
0.995661
0.994162
0.992445
0.990484
0.988204
0.985457
0.982156
0.978065
0.973108
0.966784
0.959115
0.948922
0.936763
0.919703
0.900389
0.871499
0.999449
0.998139
0.996948
0.995505
0.993551
0.991175
0.988541
0.985616
0.982269
0.978261
0.973488
0.96762
0.960596
0.951704
0.941037
0.926947
0.910157
0.886144
0.857201
0.808776
0.999302
0.997959
0.996489
0.99434
0.991429
0.988099
0.984608
0.980825
0.976528
0.971397
0.965369
0.958033
0.949411
0.938598
0.92588
0.909282
0.88994
0.863404
0.833482
0.791827
1.00018
0.999291
0.9973
0.993735
0.989281
0.984801
0.980506
0.975944
0.970738
0.964515
0.957302
0.94863
0.938615
0.926196
0.911879
0.893534
0.872813
0.845457
0.816139
0.776506
0.999845
1.00171
1.00008
0.994063
0.987105
0.981192
0.976176
0.970922
0.96481
0.957469
0.949088
0.939145
0.927855
0.91401
0.898366
0.878648
0.857015
0.828987
0.799972
0.76093
1.00055
1.00504
1.00269
0.993297
0.983658
0.976642
0.971281
0.965516
0.958545
0.950115
0.940633
0.929521
0.917093
0.902006
0.885266
0.864457
0.842151
0.81363
0.784881
0.746697
1.00117
1.00814
1.00445
0.990635
0.978653
0.971332
0.965987
0.959711
0.951834
0.942363
0.931889
0.919735
0.90629
0.890128
0.872463
0.850819
0.828007
0.799317
0.770888
0.733896
0.993903
0.993174
0.988835
0.979286
0.970897
0.965721
0.9607
0.953536
0.944561
0.934144
0.922844
0.909807
0.895445
0.878363
0.85989
0.837658
0.814455
0.785918
0.757767
0.72218
0.99934
0.974163
0.95154
0.949147
0.956137
0.959242
0.955407
0.946895
0.936646
0.925462
0.913555
0.899825
0.884648
0.866812
0.84763
0.825041
0.80152
0.773382
0.745409
0.711319
0.991974
0.948326
0.919949
0.928648
0.947099
0.955341
0.95154
0.941306
0.929603
0.917533
0.904907
0.890455
0.874444
0.85594
0.836092
0.813297
0.789478
0.76186
0.733957
0.701296
0.990968
0.942289
0.912465
0.923465
0.944403
0.953027
0.948044
0.936401
0.923566
0.910624
0.897138
0.881895
0.865056
0.845987
0.825557
0.80266
0.778583
0.7515
0.72362
0.692189
0.9962
0.962432
0.939982
0.944336
0.953742
0.954159
0.945533
0.932716
0.919161
0.905307
0.890719
0.874521
0.856842
0.837268
0.816354
0.793386
0.769109
0.742461
0.714627
0.684137
0.986748
0.989633
0.998587
0.992541
0.977652
0.961257
0.945972
0.931525
0.917208
0.902191
0.886195
0.868817
0.85025
0.830148
0.808821
0.785717
0.761301
0.734882
0.707164
0.677247
1.00128
1.02658
1.04095
1.02361
0.992848
0.965565
0.945733
0.930193
0.91543
0.899552
0.882436
0.864064
0.844817
0.824284
0.802712
0.779444
0.755016
0.728621
0.70115
0.671408
1.00938
1.04405
1.05857
1.0362
0.999
0.966884
0.944944
0.928886
0.913865
0.897351
0.879394
0.860228
0.84048
0.81958
0.797869
0.774399
0.750043
0.723528
0.696403
0.666566
1.01218
1.05286
1.06827
1.04132
0.99929
0.964806
0.942632
0.926959
0.912068
0.895183
0.876651
0.856913
0.836806
0.815602
0.793778
0.770133
0.745859
0.719271
0.692483
0.66267
1.00834
1.05818
1.08383
1.05177
0.999832
0.960111
0.937275
0.922802
0.908678
0.891902
0.873309
0.85346
0.833215
0.811842
0.789896
0.7662
0.741967
0.715529
0.688967
0.659586
0.97105
0.982919
1.01924
1.01937
0.994777
0.965162
0.940883
0.921896
0.905033
0.887792
0.869641
0.850246
0.830071
0.808616
0.786476
0.76281
0.738543
0.712426
0.685951
0.657221
1.00307
0.931276
0.868704
0.884417
0.925152
0.945329
0.938944
0.919681
0.89966
0.881815
0.864811
0.846641
0.826984
0.805706
0.783487
0.759961
0.735694
0.709955
0.683547
0.655376
1.00934
0.933564
0.855231
0.862658
0.907197
0.93353
0.932157
0.916322
0.897603
0.8798
0.862552
0.844378
0.824801
0.803699
0.78149
0.758092
0.733813
0.708336
0.681983
0.654204
0.966677
0.984715
1.02897
1.01612
0.97436
0.941966
0.924798
0.912694
0.89867
0.881726
0.863156
0.843808
0.823792
0.802744
0.780583
0.757248
0.732916
0.707561
0.681228
0.653723
0.756773
0.697596
0.637231
0.570132
0.497727
0.424951
0.354355
0.286881
0.223758
0.166169
0.750842
0.688965
0.62533
0.561223
0.49295
0.423656
0.356878
0.29349
0.234441
0.180719
0.738911
0.679241
0.614336
0.552572
0.489078
0.423733
0.360397
0.300635
0.245237
0.194487
0.726316
0.670505
0.605755
0.544855
0.485165
0.423859
0.363829
0.307242
0.255048
0.207043
0.714162
0.661827
0.598262
0.537888
0.481176
0.423946
0.367358
0.313639
0.264219
0.218635
0.702599
0.653218
0.591607
0.532031
0.477612
0.424112
0.370994
0.319952
0.272903
0.229373
0.691514
0.644658
0.58552
0.527241
0.474709
0.424419
0.374623
0.326125
0.281116
0.23929
0.680804
0.636165
0.579934
0.52352
0.472688
0.425016
0.378177
0.332045
0.288811
0.248391
0.670564
0.627865
0.574846
0.520802
0.471604
0.425958
0.38155
0.337527
0.295858
0.256627
0.661041
0.620006
0.570277
0.518934
0.471346
0.427202
0.384632
0.342391
0.302094
0.263951
0.652636
0.613007
0.566323
0.5177
0.471657
0.428604
0.387334
0.34653
0.307383
0.270116
0.645711
0.60729
0.563097
0.516844
0.472187
0.42995
0.389582
0.349925
0.311825
0.27548
0.640283
0.602957
0.560568
0.516098
0.472586
0.431021
0.391339
0.352622
0.315481
0.280009
0.636178
0.599815
0.558588
0.515277
0.47264
0.431687
0.392613
0.354705
0.31843
0.283764
0.632986
0.597333
0.556827
0.514258
0.472302
0.431944
0.393467
0.356289
0.320792
0.286866
0.630218
0.59495
0.555017
0.513089
0.471745
0.431961
0.394049
0.357517
0.322696
0.289428
0.627673
0.592535
0.553193
0.511969
0.471218
0.431931
0.394482
0.358482
0.324213
0.291509
0.625435
0.590284
0.551477
0.510922
0.470681
0.431773
0.39466
0.359084
0.325264
0.293047
0.623983
0.588727
0.550205
0.510037
0.470061
0.431335
0.394406
0.359138
0.325675
0.293887
0.623422
0.588132
0.549704
0.509612
0.469611
0.430834
0.393895
0.358745
0.32546
0.293949
)
;

boundaryField
{
    bottom
    {
        type            symmetryPlane;
    }
    right
    {
        type            fixedValue;
        value           uniform 0;
    }
    top
    {
        type            symmetryPlane;
    }
    left
    {
        type            fixedValue;
        value           uniform 1;
    }
    cylinder
    {
        type            zeroGradient;
    }
    defaultFaces
    {
        type            empty;
    }
}


// ************************************************************************* //
