/*--------------------------------*- C++ -*----------------------------------*\
| =========                 |                                                 |
| \\      /  F ield         | OpenFOAM: The Open Source CFD Toolbox           |
|  \\    /   O peration     | Version:  4.1                                   |
|   \\  /    A nd           | Web:      www.OpenFOAM.org                      |
|    \\/     M anipulation  |                                                 |
\*---------------------------------------------------------------------------*/
FoamFile
{
    version     2.0;
    format      ascii;
    class       surfaceScalarField;
    location    "14.8";
    object      phi;
}
// * * * * * * * * * * * * * * * * * * * * * * * * * * * * * * * * * * * * * //

dimensions      [0 3 -1 0 0 0 0];

internalField   nonuniform List<scalar> 
3890
(
0.00041738
0.00155096
-0.00196834
0.00257286
-0.000940249
-0.00121523
0.00704494
-0.00698274
0.00251065
0.0140119
-0.0152452
0.00827824
0.0231425
-0.0244172
0.0152866
0.0337375
-0.0333508
0.0227558
0.0449853
-0.0412829
0.0300351
0.056285
-0.0478768
0.0365771
0.0671025
-0.0533442
0.0425267
-0.0568657
0.0470644
0.0769037
0.000713461
0.000837502
0.0038306
-0.00405739
0.00985499
-0.0130071
0.0185346
-0.0239248
0.0289494
-0.034832
0.039985
-0.0443864
0.0507429
-0.0520408
0.0607138
-0.0578478
0.0695346
-0.062165
-0.0651138
0.0777827
0.00111256
-0.000275063
0.00536242
-0.00830725
0.0129016
-0.0205463
0.0227416
-0.0337647
0.0333905
-0.0454809
0.0436265
-0.0546224
0.052803
-0.0612173
0.0607776
-0.0658223
0.0677533
-0.0691407
-0.0715972
0.0742367
0.00160709
-0.00188216
0.0070462
-0.0137464
0.015726
-0.0292261
0.0258203
-0.0438591
0.0356152
-0.0552758
0.0442032
-0.0632105
0.0514279
-0.068442
0.057583
-0.0719774
0.0630838
-0.0746415
-0.0768894
0.068376
0.00217472
-0.00405688
0.00866449
-0.0202361
0.0178045
-0.0383661
0.0272111
-0.0532657
0.0354395
-0.0635042
0.0421408
-0.0699118
0.0476133
-0.0739145
0.0523547
-0.0767187
0.0568029
-0.0790898
-0.0814281
0.0613416
0.00276443
-0.00682131
0.00994398
-0.0274157
0.0187617
-0.0471838
0.02682
-0.061324
0.0332526
-0.0699367
0.0382254
-0.0748847
0.0422776
-0.0779667
0.0459232
-0.0803643
0.0495183
-0.0826848
-0.0851492
0.0532394
0.0032979
-0.0101192
0.0106481
-0.0347659
0.0185036
-0.0550392
0.0249206
-0.067741
0.0296344
-0.0746506
0.0331371
-0.0783873
0.0360259
-0.0808555
0.0387338
-0.0830722
0.0414913
-0.0854422
-0.0880619
0.0444039
0.00368281
-0.013802
0.0106571
-0.0417402
0.0171697
-0.0615519
0.0219174
-0.0724887
0.0251002
-0.0778333
0.027357
-0.0806441
0.0292348
-0.0827333
0.0310521
-0.0848895
0.0329469
-0.087337
-0.0900756
0.0349606
0.00384288
-0.0176449
0.0099904
-0.0478877
0.0150106
-0.0665721
0.0181959
-0.0756741
0.0200432
-0.0796806
0.0212126
-0.0818135
0.0221525
-0.0836732
0.0230779
-0.0858149
0.0240565
-0.0883157
-0.0911286
0.0251096
0.00374429
-0.0213892
0.00878444
-0.0529278
0.0122996
-0.0700872
0.0140736
-0.0774481
0.0147507
-0.0803577
0.0149349
-0.0819977
0.0149672
-0.0837055
0.0149813
-0.0858291
0.015007
-0.0883413
0.0150574
-0.091179
-0.000535377
0.000535377
-0.00157702
0.00104164
-0.00283596
0.00125894
-0.00415363
0.00131768
-0.00544026
0.00128663
-0.00664692
0.00120666
-0.00775219
0.00110527
-0.00875616
0.00100397
-0.00967995
0.000923786
0.000890814
-0.0105708
-0.000498474
0.00103385
-0.00146519
0.00200836
-0.00262682
0.00242056
-0.00382534
0.0025162
-0.00496804
0.00242933
-0.00599992
0.00223853
-0.00689088
0.00199623
-0.0076318
0.00174489
-0.00823421
0.0015262
0.00140675
-0.00875015
-0.000429262
0.00146311
-0.00125748
0.00283657
-0.00223041
0.0033935
-0.00319513
0.00348092
-0.00405522
0.00328942
-0.00474517
0.00292849
-0.00521865
0.0024697
-0.00544923
0.00197547
-0.00543213
0.0015091
0.00114449
-0.00516987
-0.000340027
0.00180314
-0.000977468
0.00347401
-0.0016804
0.00409643
-0.00230079
0.00410131
-0.00273796
0.0037266
-0.00291526
0.00310579
-0.00276616
0.0023206
-0.00223157
0.00144088
-0.00127834
0.000555877
-0.000145503
1.16501e-05
-0.000243835
0.00204697
-0.000653372
0.00388355
-0.00101175
0.00445481
-0.00117045
0.00426
-0.00102022
0.00357637
-0.000471488
0.00255705
0.000557506
0.0012916
0.00214631
-0.000147921
0.00436709
-0.0016649
-0.00310381
0.0073254
-0.000152729
0.0021997
-0.000308492
0.00403931
-0.000247586
0.0043939
0.000193217
0.0038192
0.00114556
0.00262403
0.00271773
0.000984881
0.00500184
-0.000992507
0.0080709
-0.00321699
0.0119731
-0.00556711
-0.00816849
0.0170378
-7.46119e-05
0.00227431
5.15189e-05
0.00391318
0.000618275
0.00382715
0.00183258
0.00260489
0.00386225
0.000594358
0.00683965
-0.00199252
0.0108493
-0.00500214
0.0159237
-0.00829142
0.0219796
-0.0116229
-0.0157067
0.0295178
3.20306e-06
0.00227111
0.000444201
0.00347218
0.00164582
0.00262553
0.00386368
0.000387037
0.00730685
-0.00284881
0.0121008
-0.00678643
0.0182684
-0.0111698
0.0257121
-0.0157351
0.0342312
-0.0201421
-0.0255664
0.0440909
8.69879e-05
0.00218412
0.000938594
0.00262057
0.00296429
0.000599836
0.00648607
-0.00313475
0.011699
-0.00806179
0.0186232
-0.0137106
0.0271014
-0.0196479
0.0367873
-0.0254211
0.0474768
-0.0308315
-0.0365676
0.0584781
0.000215781
0.00162113
0.00473161
0.00987511
0.0170999
0.0261451
0.0365322
0.0476883
0.0593834
0.0698802
-0.0109402
0.000369475
-0.0112628
0.000322589
-0.0115279
0.000265086
-0.0117381
0.00021017
-0.0118968
0.000158674
-0.0120073
0.000110533
-0.0120729
6.5653e-05
-0.0120965
2.35345e-05
-0.0120825
-1.39338e-05
-0.0120373
-4.52533e-05
-0.0119634
-7.38456e-05
-0.0118654
-9.80653e-05
-0.0117487
-0.000116649
-0.0116204
-0.000128331
-0.0114884
-0.000131977
-0.0113614
-0.000126974
-0.0112476
-0.000113832
-0.0111528
-9.47769e-05
-0.0110789
-7.39653e-05
-5.74003e-05
-0.00903572
0.000655044
-0.00928088
0.000567745
-0.00947737
0.000461567
-0.00962882
0.000361622
-0.00973747
0.000267322
-0.00980587
0.000178934
-0.00983683
9.66084e-05
-0.00983064
1.73454e-05
-0.00979662
-4.79567e-05
-0.00973455
-0.00010733
-0.00964723
-0.000161162
-0.00953819
-0.000207109
-0.00941189
-0.000242943
-0.00927399
-0.000266229
-0.00913141
-0.000274557
-0.00899223
-0.000266161
-0.00886503
-0.000241029
-0.00875742
-0.000202386
-0.00867316
-0.000158227
-0.00012226
-0.00531863
0.0008038
-0.00541234
0.000661461
-0.00548204
0.000531271
-0.00552188
0.00040146
-0.00553304
0.000278479
-0.00551802
0.000163915
-0.00547615
5.47392e-05
-0.00541497
-4.38278e-05
-0.00533412
-0.000128813
-0.00523264
-0.000208804
-0.00511283
-0.000280976
-0.00497679
-0.000343149
-0.00482713
-0.000392604
-0.0046673
-0.000426054
-0.00450196
-0.000439898
-0.00433733
-0.000430787
-0.0041815
-0.000396862
-0.00404405
-0.000339836
-0.00393323
-0.000269045
-0.000207467
0.000229651
0.000585798
0.000297375
0.000593735
0.000381438
0.000447207
0.000488177
0.00029472
0.000606908
0.000159748
0.000741959
2.88632e-05
0.000877241
-8.05426e-05
0.00101784
-0.000184428
0.00117198
-0.000282948
0.00133694
-0.000373773
0.00151157
-0.000455602
0.00169486
-0.000526438
0.00188571
-0.000583457
0.00208274
-0.00062308
0.00228398
-0.00064114
0.00248629
-0.000633094
0.00268442
-0.000594997
0.00286945
-0.000524865
0.00302862
-0.000428219
-0.000332139
0.00765784
0.000253352
0.00793054
0.000321043
0.00819236
0.000185384
0.00846912
1.79597e-05
0.00872726
-9.83907e-05
0.00896499
-0.000208871
0.00920286
-0.000318414
0.00944346
-0.000425024
0.00968603
-0.000525525
0.00993035
-0.000618085
0.0101761
-0.00070131
0.0104228
-0.000773163
0.0106702
-0.000830854
0.0109179
-0.000870811
0.0111658
-0.000889049
0.0114135
-0.00088075
0.0116599
-0.000841454
0.011901
-0.000765924
0.0121271
-0.000654297
-0.00052054
0.0175129
-0.000221801
0.0179135
-7.94839e-05
0.0182904
-0.000191537
0.0186424
-0.000334028
0.0189919
-0.000447932
0.0193305
-0.000547487
0.0196615
-0.000649435
0.019989
-0.000752454
0.0203139
-0.000850419
0.0206359
-0.000940104
0.0209545
-0.00101996
0.0212692
-0.00108778
0.0215791
-0.00114084
0.0218839
-0.00117557
0.0221837
-0.00118888
0.022479
-0.00117597
0.022772
-0.00113447
0.0230625
-0.0010565
0.0233552
-0.000946922
-0.000779175
0.0299839
-0.000687882
0.0303534
-0.000448996
0.0307401
-0.000578273
0.0311415
-0.000735386
0.0315375
-0.000844002
0.0319288
-0.000938769
0.0323213
-0.00104195
0.0327159
-0.00114699
0.0331103
-0.00124481
0.0335023
-0.00133214
0.0338902
-0.00140786
0.0342719
-0.00146949
0.0346459
-0.0015148
0.0350103
-0.00154002
0.0353656
-0.00154416
0.0357109
-0.00152124
0.0360514
-0.00147499
0.0363844
-0.00138949
0.0367321
-0.00129468
-0.001104
0.0443486
-0.000945539
0.0446466
-0.000747055
0.0450154
-0.000947032
0.0454177
-0.00113775
0.0458362
-0.00126246
0.046275
-0.00137759
0.0467335
-0.00150044
0.0472036
-0.00161704
0.047678
-0.00171928
0.048152
-0.00180611
0.0486218
-0.00187771
0.0490837
-0.00193131
0.0495353
-0.00196647
0.0499739
-0.00197853
0.0504006
-0.00197092
0.0508125
-0.00193317
0.0512189
-0.00188137
0.0516112
-0.00178181
0.0520202
-0.00170365
-0.00150377
0.0585883
-0.00105575
0.0589833
-0.00114207
0.0594857
-0.00144947
0.0600026
-0.00165458
0.0605422
-0.00180205
0.0611114
-0.00194679
0.0616974
-0.00208649
0.0622884
-0.00220805
0.0628791
-0.00230997
0.0634659
-0.00239291
0.0640463
-0.00245811
0.0646169
-0.00250194
0.0651774
-0.00252695
0.0657247
-0.00252586
0.0662626
-0.00250877
0.0667864
-0.00245698
0.0673079
-0.00240283
0.0678172
-0.0022911
0.0683394
-0.00222584
-0.00203188
0.0705857
-0.00176123
0.0715063
-0.00206264
0.0722979
-0.00224111
0.0730538
-0.00241054
0.0738104
-0.00255858
0.074561
-0.00269739
0.0753013
-0.00282679
0.0760337
-0.00294052
0.0767621
-0.00303833
0.0774875
-0.00311835
0.0782119
-0.00318246
0.0789348
-0.00322486
0.0796589
-0.00325101
0.0803822
-0.00324918
0.0811095
-0.00323608
0.0818368
-0.00318427
0.082573
-0.00313901
0.0833123
-0.00303048
0.0840648
-0.00297831
-0.00280184
0.0968828
-0.00098168
-0.0976623
0.0960918
-0.00127164
0.095402
-0.00155135
0.0947951
-0.00180363
0.0942634
-0.00202689
0.0937905
-0.00222443
0.0933611
-0.00239736
0.0929646
-0.00254403
0.0925946
-0.0026684
0.0922456
-0.00276934
0.0919141
-0.00285093
0.0915966
-0.0029073
0.0912926
-0.00294705
0.0910005
-0.00295712
0.0907224
-0.00295792
0.0904579
-0.00291977
0.0902097
-0.00289079
0.0899813
-0.00280214
0.0897686
-0.00276557
-0.0026199
0.105141
-0.000681075
-0.105442
0.104797
-0.00092716
0.104419
-0.00117302
0.104037
-0.00142225
0.103666
-0.00165584
0.103305
-0.00186346
0.102953
-0.00204519
0.10261
-0.00220116
0.102277
-0.00233529
0.101953
-0.00244534
0.101638
-0.00253622
0.101332
-0.00260133
0.101036
-0.00265076
0.10075
-0.00267058
0.100474
-0.00268261
0.100212
-0.00265701
0.0999616
-0.00264085
0.0997292
-0.00256974
0.0995078
-0.00254419
-0.00242529
0.111584
-0.000372958
-0.111892
0.111332
-0.000675267
0.111095
-0.000935854
0.110857
-0.00118455
0.110619
-0.00141756
0.110381
-0.00162548
0.110144
-0.00180753
0.109906
-0.00196352
0.109669
-0.00209806
0.109432
-0.0022086
0.109197
-0.00230107
0.108964
-0.0023683
0.108735
-0.00242151
0.10851
-0.00244595
0.108292
-0.00246439
0.108081
-0.00244674
0.10788
-0.00243914
0.10769
-0.00237994
0.107508
-0.00236232
-0.0022595
0.117298
-0.000143282
-0.117527
0.117113
-0.000490414
0.116952
-0.00077499
0.116792
-0.00102503
0.116629
-0.00125425
0.116464
-0.0014599
0.116297
-0.00164099
0.116129
-0.00179561
0.11596
-0.00192877
0.115789
-0.00203767
0.115617
-0.00212957
0.115446
-0.00219657
0.115275
-0.00225128
0.115107
-0.00227776
0.114943
-0.00230019
0.114784
-0.0022873
0.11463
-0.00228575
0.114484
-0.0022341
0.114344
-0.00222228
-0.00212913
0.12291
-1.09856e-05
-0.123042
0.122788
-0.000367925
0.122674
-0.000661415
0.12256
-0.000911394
0.122442
-0.00113538
0.122318
-0.00133592
0.12219
-0.0015136
0.12206
-0.00166525
0.121927
-0.00179588
0.121791
-0.00190213
0.121654
-0.00199246
0.121516
-0.0020582
0.121378
-0.00211334
0.121241
-0.00214061
0.121106
-0.00216572
0.120975
-0.00215592
0.120848
-0.00215884
0.120726
-0.00211245
0.120609
-0.00210501
-0.00201925
0.128831
6.80698e-05
-0.12891
0.128737
-0.000274073
0.128641
-0.000564676
0.128541
-0.000812238
0.128437
-0.00103081
0.128326
-0.00122472
0.128209
-0.00139692
0.128088
-0.00154405
0.127963
-0.00167116
0.127835
-0.00177413
0.127705
-0.00186222
0.127573
-0.00192617
0.12744
-0.00198097
0.127308
-0.00200849
0.127178
-0.00203533
0.12705
-0.00202797
0.126925
-0.00203415
0.126805
-0.00199236
0.126688
-0.00198817
-0.00190946
0.135109
0.000143485
-0.135185
0.135012
-0.000177206
0.134907
-0.000458835
0.134796
-0.000701436
0.134679
-0.000914107
0.134555
-0.00110089
0.134425
-0.00126656
0.134289
-0.00140833
0.134149
-0.00153138
0.134006
-0.00163101
0.133861
-0.00171667
0.133713
-0.00177895
0.133566
-0.00183311
0.133418
-0.00186107
0.133272
-0.00188909
0.133128
-0.00188446
0.132987
-0.00189309
0.132851
-0.00185641
0.132718
-0.00185465
-0.00178388
0.14148
0.000238451
-0.141575
0.141364
-6.06811e-05
0.141235
-0.0003306
0.1411
-0.000565618
0.140957
-0.000771337
0.140807
-0.000950695
0.140649
-0.0011094
0.140487
-0.00124555
0.14032
-0.00136434
0.14015
-0.00146096
0.139977
-0.00154435
0.139804
-0.00160559
0.13963
-0.0016592
0.139457
-0.00168838
0.139286
-0.0017175
0.139118
-0.00171655
0.138952
-0.0017273
0.138793
-0.00169696
0.138635
-0.00169718
-0.00163598
0.147505
0.000351811
-0.147619
0.147372
7.28385e-05
0.147224
-0.000182829
0.147067
-0.000408727
0.146902
-0.000606008
0.146728
-0.000777272
0.146548
-0.000928628
0.146361
-0.00105908
0.14617
-0.00117347
0.145977
-0.00126742
0.145781
-0.00134875
0.145585
-0.00140968
0.145389
-0.001463
0.145195
-0.00149434
0.145002
-0.00152469
0.144814
-0.00152856
0.144628
-0.00154137
0.14445
-0.00151875
0.144274
-0.00152076
-0.0014708
0.152763
0.000461872
-0.152873
0.152633
0.000202336
0.152488
-3.7304e-05
0.152331
-0.000252512
0.152165
-0.00043917
0.151988
-0.000601202
0.151804
-0.000744536
0.151614
-0.000868903
0.151419
-0.000978493
0.151222
-0.00106971
0.151022
-0.00114886
0.150822
-0.00120979
0.150622
-0.00126287
0.150424
-0.00129685
0.150228
-0.00132847
0.150037
-0.00133777
0.149848
-0.00135261
0.149668
-0.00133844
0.149489
-0.00134215
-0.00130418
0.157068
0.000531513
-0.157138
0.156978
0.000292834
0.156871
6.91132e-05
0.156749
-0.000130631
0.156615
-0.000304885
0.15647
-0.000455909
0.156315
-0.000589778
0.156153
-0.000706851
0.155985
-0.000810581
0.155814
-0.000898104
0.155639
-0.000974311
0.155464
-0.00103455
0.155288
-0.00108686
0.155114
-0.00112291
0.154941
-0.00115538
0.154773
-0.00116953
0.154606
-0.00118608
0.154447
-0.00117966
0.15429
-0.00118489
-0.00115797
0.160677
0.000520835
-0.160666
0.160664
0.000305825
0.160631
0.00010223
0.160579
-7.90185e-05
0.160512
-0.000237392
0.160431
-0.000374896
0.160338
-0.0004972
0.160236
-0.000604799
0.160126
-0.000700709
0.160011
-0.00078245
0.15989
-0.000854019
0.159767
-0.000911622
0.159642
-0.000961764
0.159517
-0.00099795
0.159392
-0.00103013
0.15927
-0.00104704
0.159148
-0.00106449
0.159032
-0.00106344
0.158917
-0.00106979
-0.00105101
0.164345
0.000409884
-0.164234
0.164427
0.00022357
0.164484
4.5362e-05
0.164519
-0.00011371
0.164534
-0.000252802
0.164533
-0.000373868
0.164518
-0.000481951
0.16449
-0.000577184
0.164452
-0.000662667
0.164406
-0.000735718
0.164352
-0.00080028
0.164293
-0.000852392
0.164229
-0.000898314
0.164163
-0.000931717
0.164095
-0.000961898
0.164026
-0.000978446
0.163957
-0.000995547
0.16389
-0.000996368
0.163823
-0.00100318
-0.000988467
0.169111
0.000221488
-0.168923
0.169267
6.79472e-05
0.169393
-8.07137e-05
0.169494
-0.000214335
0.169573
-0.000331993
0.169633
-0.000434271
0.169677
-0.000525939
0.169706
-0.000606327
0.169723
-0.000679124
0.169728
-0.000740896
0.169724
-0.00079631
0.169712
-0.000840315
0.169694
-0.000880088
0.16967
-0.000908004
0.169643
-0.000934534
0.169612
-0.000947839
0.16958
-0.000963332
0.169546
-0.000962842
0.169513
-0.000969425
-0.000955185
0.175753
2.0622e-05
-0.175552
0.17592
-9.99384e-05
0.176058
-0.000218134
0.176169
-0.000325723
0.176259
-0.000421749
0.17633
-0.000504902
0.176383
-0.000579708
0.176422
-0.000644559
0.176446
-0.00070394
0.176459
-0.000753495
0.176462
-0.000798909
0.176455
-0.000833737
0.176441
-0.000866478
0.176421
-0.000887732
0.176396
-0.000909754
0.176367
-0.000918541
0.176335
-0.000931676
0.176301
-0.000928506
0.176266
-0.000934355
-0.000919134
0.184172
-0.00012284
-0.184028
0.184286
-0.000213986
0.184372
-0.000304422
0.184434
-0.000388067
0.184477
-0.000464038
0.184501
-0.000529577
0.18451
-0.000588781
0.184505
-0.000639283
0.184487
-0.000686095
0.184458
-0.000724299
0.184419
-0.000760221
0.184372
-0.000786563
0.184318
-0.000812533
0.184258
-0.000827744
0.184194
-0.000845303
0.184125
-0.000850197
0.184055
-0.00086083
0.183982
-0.00085572
0.183908
-0.000860613
-0.000845334
0.193276
-0.000179731
-0.193219
0.193308
-0.000245804
0.193315
-0.000312047
0.193301
-0.000374023
0.193268
-0.000431276
0.193219
-0.000480603
0.193156
-0.00052538
0.19308
-0.00056297
0.192992
-0.000598186
0.192894
-0.000626335
0.192787
-0.000653449
0.192673
-0.000672551
0.192553
-0.000692215
0.192428
-0.0007027
0.192298
-0.00071605
0.192167
-0.000718506
0.192033
-0.000726677
0.191898
-0.000721312
0.191763
-0.000725152
-0.000711835
0.201572
-0.000163076
-0.201589
0.201533
-0.000207158
0.201472
-0.000251006
0.20139
-0.000292003
0.201289
-0.000330384
0.201172
-0.000363514
0.201041
-0.000393739
0.200896
-0.00041882
0.200741
-0.000442482
0.200576
-0.000461127
0.200401
-0.000479395
0.200221
-0.000491931
0.200034
-0.000505209
0.199843
-0.000511855
0.199648
-0.000520885
0.199451
-0.000522024
0.199252
-0.000527582
0.199054
-0.000523334
0.198855
-0.000525964
-0.000516273
0.207842
-9.42274e-05
-0.207911
0.207753
-0.000118408
0.207642
-0.000140491
0.207511
-0.00016065
0.20736
-0.00017967
0.207193
-0.000196193
0.207011
-0.000211282
0.206816
-0.000223799
0.206609
-0.000235585
0.206392
-0.000244902
0.206167
-0.000253981
0.205935
-0.000260256
0.205697
-0.000266791
0.205455
-0.000270128
0.205209
-0.000274473
0.204962
-0.00027509
0.204712
-0.000277622
0.204464
-0.000275603
0.204215
-0.000276582
-0.00027166
0.211239
-0.211333
0.21112
0.21098
0.210819
0.21064
0.210443
0.210232
0.210008
0.209773
0.209528
0.209274
0.209014
0.208747
0.208477
0.208202
0.207927
0.207649
0.207374
0.207097
0.0954332
0.0139905
-0.0943663
0.0964744
0.0240684
0.0975182
0.0339168
0.098531
0.0433912
0.0995555
0.0522149
0.100515
0.0603817
0.101203
0.0676886
0.101851
0.0735887
0.0998969
0.0797365
0.0791383
0.0990568
0.0130687
-0.098135
0.0999931
0.0231321
0.100984
0.0329261
0.102016
0.0423585
0.103031
0.0512002
0.104216
0.0591972
0.104997
0.0669076
0.106342
0.0722435
0.106467
0.0796109
0.0801637
0.103047
0.0122803
-0.102259
0.103915
0.0222648
0.10484
0.0320004
0.105901
0.0412976
0.106886
0.0502153
0.108178
0.0579054
0.109168
0.0659171
0.110535
0.0708764
0.111777
0.078369
0.0800487
0.107187
0.0115883
-0.106495
0.108043
0.0214092
0.108972
0.031071
0.110106
0.0401638
0.111184
0.0491374
0.112512
0.0565776
0.113769
0.0646602
0.115015
0.0696305
0.116601
0.0767822
0.0791228
0.111248
0.0109503
-0.11061
0.112139
0.0205186
0.11317
0.0300399
0.114435
0.0388988
0.115745
0.0478269
0.117168
0.055155
0.118685
0.0631427
0.120014
0.0683019
0.121677
0.0751191
0.0777572
0.114988
0.0103226
-0.114361
0.11595
0.0195572
0.11716
0.02883
0.118624
0.0374348
0.120257
0.0461939
0.121938
0.0534735
0.123775
0.0613059
0.125442
0.0666354
0.127269
0.0732919
0.0761159
0.118191
0.00966905
-0.117538
0.119255
0.018494
0.120682
0.0274026
0.122411
0.0357063
0.124416
0.0441887
0.126516
0.0513728
0.128789
0.0590332
0.130964
0.0644606
0.133191
0.0710651
0.0741219
0.120733
0.00896682
-0.120031
0.121918
0.0173087
0.123566
0.0257549
0.125593
0.0336798
0.127987
0.0417942
0.13058
0.0487801
0.13339
0.0562228
0.13617
0.0616811
0.13903
0.068205
0.0715764
0.12265
0.00820514
-0.121888
0.123958
0.0160011
0.1258
0.023913
0.128102
0.0313775
0.130858
0.0390386
0.133914
0.0457233
0.137291
0.0528464
0.140706
0.058266
0.14433
0.0645804
0.0682882
0.124186
0.00738384
-0.123364
0.125592
0.0145948
0.127577
0.0219277
0.130081
0.0288744
0.133116
0.0360027
0.136533
0.0423069
0.140401
0.048978
0.144396
0.0542716
0.148758
0.0602178
0.0641738
0.125793
0.00650732
-0.124917
0.127254
0.013134
0.129315
0.0198667
0.131918
0.0262721
0.135112
0.032808
0.138741
0.0386781
0.142933
0.0447856
0.147358
0.0498474
0.152277
0.0552985
0.0593127
0.12806
0.0056081
-0.127161
0.129526
0.0116686
0.131594
0.0177989
0.134202
0.0236641
0.137428
0.0295812
0.141124
0.0349829
0.145434
0.040475
0.150086
0.0451956
0.155291
0.0500934
0.0539374
0.131527
0.00473178
-0.13065
0.132955
0.01024
0.134982
0.0157716
0.137548
0.021099
0.140727
0.0264019
0.1444
0.0313098
0.148677
0.0361974
0.153384
0.0404893
0.158633
0.0448438
0.0483369
0.136416
0.00392538
-0.135609
0.137792
0.00886411
0.139775
0.0137884
0.142317
0.0185574
0.14546
0.0232584
0.149126
0.0276439
0.153359
0.0319645
0.158069
0.0357789
0.163283
0.0396305
0.0426965
0.142419
0.00321215
-0.141706
0.143763
0.00752056
0.14575
0.0118009
0.148351
0.0159569
0.151565
0.0200445
0.155343
0.0238652
0.159676
0.0276318
0.164506
0.0309485
0.169823
0.0343142
0.0369675
0.148738
0.0025709
-0.148097
0.150101
0.00615839
0.152173
0.0097284
0.154938
0.0131919
0.158369
0.0166135
0.162424
0.0198099
0.167076
0.0229801
0.172249
0.0257755
0.177946
0.0286168
0.0308858
0.154466
0.0019448
-0.15384
0.155904
0.00472113
0.158133
0.00749906
0.161138
0.0101871
0.164891
0.0128605
0.16934
0.0153602
0.174471
0.0178491
0.180178
0.0200685
0.186491
0.0223045
0.0241577
0.159069
0.00129257
-0.158417
0.160602
0.00318783
0.163006
0.00509587
0.166255
0.00693721
0.170339
0.00877734
0.175195
0.0105039
0.180823
0.0122212
0.187112
0.013779
0.194093
0.015324
0.0166619
0.162431
0.000635677
-0.161774
0.164022
0.0015973
0.166546
0.00257172
0.169973
0.00350956
0.174302
0.00444904
0.179472
0.00533345
0.185483
0.00621053
0.192244
0.00701762
0.199761
0.00780706
0.0085124
0.164324
-0.163689
0.165922
0.168493
0.172003
0.176452
0.181785
0.187996
0.195013
0.202821
0.0443305
0.0535088
-0.0472067
-0.0506326
0.0380675
0.0521257
-0.0458628
0.0322268
0.0512352
-0.0453945
0.0267112
0.0509285
-0.0454128
0.0213995
0.051109
-0.0457974
0.0162216
0.0517634
-0.0465855
0.0111545
0.0527829
-0.0477158
0.00630724
0.0530737
-0.0482264
0.00216749
0.048419
-0.0442793
0.028186
-0.0260185
0.0426008
0.0598019
-0.0488939
0.0364791
0.0582474
0.0306726
0.0570417
0.0252119
0.0563892
0.0200137
0.0563072
0.0149909
0.0567863
0.0101205
0.0576532
0.00554573
0.0576485
0.00178987
0.0521749
0.0299759
0.039976
0.0658045
-0.0459787
0.0341097
0.0641138
0.0284832
0.0626681
0.0231708
0.0617016
0.0181461
0.061332
0.0133416
0.0615907
0.00874922
0.0622456
0.00455264
0.0618451
0.0013054
0.0554221
0.0312813
0.0362373
0.0714639
-0.0418967
0.0307611
0.06959
0.0254844
0.0679449
0.020475
0.066711
0.0157408
0.0660662
0.0112478
0.0660836
0.00702778
0.0664657
0.00332607
0.0655468
0.000711835
0.0580364
0.0319931
0.0314358
0.0766869
-0.0366589
0.0264356
0.0745901
0.0216378
0.0727428
0.017076
0.0712728
0.0127638
0.0703784
0.00869491
0.0701525
0.00494387
0.0702167
0.00186033
0.0686304
-2.14899e-05
0.0599182
0.0319716
0.0255703
0.0813127
-0.030196
0.021176
0.0789844
0.0169808
0.076938
0.012991
0.0752625
0.00921823
0.0741512
0.00568531
0.0736855
0.00251437
0.0733877
4.7939e-05
0.0710968
-0.000706839
0.060673
0.0312648
0.0187506
0.0851841
-0.022622
0.0150833
0.0826517
0.0115952
0.0804262
0.00828182
0.0785759
0.00515243
0.0772806
0.00226823
0.0765696
-0.000161084
0.075817
-0.00158467
0.0725204
-0.00144496
0.0605333
0.0298198
0.0110988
0.0881682
-0.0140829
0.00826572
0.0854848
0.00558017
0.0831117
0.00303574
0.0811203
0.000644814
0.0796715
-0.00149028
0.0787047
-0.00304903
0.0773757
-0.00346357
0.0729349
-0.00217817
0.0592479
0.0276416
0.00277969
0.090213
-0.00482451
0.000869547
0.0873949
-0.000937385
0.0849186
-0.00266518
0.0828481
-0.00426046
0.0812668
-0.00555173
0.079996
-0.00614188
0.0779659
-0.00537695
0.07217
-0.00285372
0.0567246
0.0247879
-0.00598918
0.00502315
-0.0069356
-0.00784605
-0.00870345
-0.0094344
-0.00979606
-0.00927827
-0.00719553
-0.00339871
0.0335461
0.00316196
-0.0367081
0.030258
0.00328808
0.0268233
0.00343469
0.0232206
0.00360275
0.0194205
0.00380005
0.0153877
0.00403287
0.0110995
0.00428816
0.00663781
0.00446168
0.00246438
0.00417344
0.00246438
0.0341533
0.00645896
-0.0374503
0.0307459
0.00669551
0.0272072
0.00697339
0.0235155
0.00729443
0.0196411
0.0076745
0.0155472
0.0081268
0.011208
0.00862739
0.00670146
0.00896818
0.00249554
0.00837936
0.00495991
0.0353056
0.0100129
-0.0388596
0.0316707
0.0103304
0.0279334
0.0107107
0.0240713
0.0111565
0.0200539
0.011692
0.0158425
0.0123381
0.0114084
0.0130615
0.00682324
0.0135533
0.00254501
0.0126576
0.00750493
0.0368833
0.0139181
-0.0407884
0.0329356
0.0142781
0.0289238
0.0147225
0.0248259
0.0152544
0.0206105
0.0159073
0.0162372
0.0167114
0.0116726
0.0176261
0.00698021
0.0182457
0.00260907
0.0170287
0.010114
0.0387214
0.0182332
-0.0430366
0.0344049
0.0185946
0.0300677
0.0190598
0.0256902
0.0196319
0.0212409
0.0203566
0.0166768
0.0212755
0.01196
0.022343
0.0071458
0.0230599
0.00267438
0.0215001
0.0127884
0.0406365
0.0229763
-0.0453796
0.0359248
0.0233063
0.0312359
0.0237487
0.0265572
0.0243106
0.0218578
0.025056
0.0170925
0.0260409
0.0122189
0.0272166
0.0072855
0.0279933
0.00272476
0.0260609
0.0155131
0.0424086
0.0281584
-0.0475908
0.0372997
0.0284152
0.0322694
0.028779
0.027306
0.0292741
0.0223704
0.0299915
0.0174144
0.0309968
0.0123965
0.0322345
0.00736325
0.0330266
0.00274312
0.030681
0.0182563
0.043931
0.0337619
-0.0495345
0.0384071
0.0339391
0.0330437
0.0341424
0.0278192
0.0344986
0.0226762
0.0351345
0.0175617
0.0361114
0.0124338
0.0373624
0.00734052
0.0381198
0.00271174
0.0353098
0.020968
0.0447415
0.0399052
-0.0508848
0.0388901
0.0397904
0.0333395
0.039693
0.0279502
0.0398878
0.0226637
0.0404211
0.0174476
0.0413274
0.012267
0.0425429
0.00717662
0.0432102
0.00261303
0.0398734
0.023581
0.0449657
-0.0522671
0.0388933
0.0331918
0.0276669
0.0222906
0.0170325
0.0118596
0.00684337
0.00243747
0.0403585
-0.000107655
0.040466
-0.000107464
0.0405701
-0.000104138
0.0406666
-9.65068e-05
0.0407519
-8.52754e-05
0.0408225
-7.06113e-05
0.0408746
-5.20865e-05
0.0409036
-2.89544e-05
0.0409028
7.47779e-07
0.0408715
3.13695e-05
0.0408019
6.95802e-05
0.0406867
0.00011516
0.0405176
0.000169149
0.0402846
0.000232965
0.0399762
0.000308379
0.0395787
0.000397541
0.0390755
0.0005032
0.038447
0.000628525
0.0376691
0.000777832
0.00096105
0.0412425
-0.000217141
0.041349
-0.000213965
0.0414506
-0.000205736
0.0415441
-0.00018996
0.0416262
-0.000167377
0.0416934
-0.000137852
0.0417418
-0.000100461
0.0417665
-5.37327e-05
0.0417623
4.98182e-06
0.0417261
6.756e-05
0.041651
0.000144719
0.0415294
0.000236725
0.0413529
0.000345682
0.0411114
0.00047443
0.0407933
0.000626527
0.0403846
0.000806261
0.0398686
0.00101919
0.0392256
0.00127153
0.0384315
0.00157187
0.00194225
0.04298
-0.000316621
0.0430777
-0.000311633
0.0431709
-0.000298905
0.0432558
-0.00027488
0.043329
-0.00024058
0.0433869
-0.000195743
0.0434253
-0.000138906
0.0434393
-6.76617e-05
0.0434249
1.93997e-05
0.0433766
0.000115771
0.0432881
0.000233303
0.0431515
0.000373328
0.0429581
0.000539072
0.0426977
0.000734823
0.0423582
0.00096596
0.0419256
0.00123889
0.0413827
0.00156207
0.0407096
0.00194466
0.0398826
0.00239882
0.00296531
0.045507
-0.000396146
0.0455845
-0.000389129
0.0456577
-0.000372126
0.0457228
-0.000339926
0.0457758
-0.000293604
0.0458129
-0.000232853
0.0458297
-0.000155726
0.0458211
-5.90481e-05
0.0457851
5.53846e-05
0.0457129
0.000187962
0.0455984
0.000347873
0.0454336
0.000538041
0.0452098
0.000762953
0.0449161
0.00102845
0.0445404
0.00134174
0.0440678
0.00171146
0.043481
0.0021489
0.0427589
0.00266673
0.04188
0.00327773
0.00405687
0.0487356
-0.000437835
0.048775
-0.000428497
0.0488099
-0.000407052
0.0488367
-0.000366668
0.0488512
-0.000308184
0.0488497
-0.000231263
0.0488274
-0.00013346
0.0487762
-7.83675e-06
0.0487
0.000131536
0.0485851
0.000302857
0.0484257
0.000507327
0.0482138
0.000749924
0.0479402
0.00103656
0.0475937
0.00137491
0.0471617
0.00177374
0.0466287
0.00224448
0.0459772
0.00280038
0.0451836
0.00346036
0.0442308
0.00423052
0.00525106
0.0525627
-0.000416362
0.0525384
-0.000404172
0.0525086
-0.000377303
0.0524703
-0.000328336
0.0524195
-0.000257406
0.0523517
-0.000163463
0.052261
-4.27562e-05
0.0521509
0.000102285
0.0520055
0.000276909
0.0518211
0.000487261
0.0515907
0.000737704
0.0513058
0.00103491
0.0509569
0.00138545
0.050532
0.00179982
0.0500184
0.0022873
0.0493984
0.00286451
0.048656
0.00354277
0.0477618
0.00435455
0.0467105
0.00528185
0.00658192
0.0568802
-0.000298694
0.0567583
-0.000282246
0.056629
-0.000247997
0.0564907
-0.000190005
0.0563403
-0.000107082
0.0561722
4.71284e-06
0.0559866
0.000142807
0.0557737
0.000315208
0.0555269
0.000523651
0.0552401
0.000774067
0.0549064
0.00107142
0.0545162
0.00142508
0.054061
0.0018407
0.0535267
0.00233408
0.0529032
0.00291082
0.0521673
0.00360036
0.0513074
0.00440267
0.0502751
0.00538688
0.0490804
0.00647653
0.00807161
0.0615881
-3.90037e-05
0.061324
-1.81487e-05
0.0610512
2.48529e-05
0.06077
9.1117e-05
0.0604788
0.000184148
0.060174
0.000309478
0.0598472
0.000469608
0.0594931
0.000669314
0.0591059
0.000910905
0.0586778
0.00120216
0.0582026
0.00154658
0.0576689
0.00195883
0.05707
0.0024396
0.056387
0.00301711
0.0556166
0.00368122
0.054724
0.00449294
0.0537221
0.0054045
0.0525324
0.00657666
0.0512145
0.00779438
0.00975167
0.0666038
0.000415759
0.0661406
0.000444995
0.0656714
0.000494105
0.0652004
0.000562117
0.0647241
0.00066048
0.0642345
0.000799035
0.0637244
0.000979734
0.063187
0.00120668
0.0626178
0.00148013
0.0620079
0.00181206
0.0613528
0.00220168
0.0606376
0.00267399
0.059861
0.00321622
0.058994
0.00388408
0.058048
0.00462723
0.0569559
0.00558503
0.0557745
0.00658591
0.0543336
0.00801761
0.0528528
0.00927512
0.0117197
0.0718723
0.00116692
0.0711375
0.00117978
0.0704192
0.00121241
0.0697135
0.0012678
0.0690087
0.00136532
0.0682913
0.00151638
0.0675541
0.00171696
0.0667912
0.0019696
0.0660004
0.00227096
0.0651723
0.00264014
0.064305
0.00306895
0.0633812
0.00359784
0.0624075
0.00418992
0.0613484
0.00494318
0.0602413
0.00573426
0.0589934
0.00683297
0.0577481
0.00783121
0.0561834
0.0095823
0.0547792
0.0106794
0.0142318
0.0714874
0.00123934
0.0714566
0.00121052