/*--------------------------------*- C++ -*----------------------------------*\
| =========                 |                                                 |
| \\      /  F ield         | OpenFOAM: The Open Source CFD Toolbox           |
|  \\    /   O peration     | Version:  4.1                                   |
|   \\  /    A nd           | Web:      www.OpenFOAM.org                      |
|    \\/     M anipulation  |                                                 |
\*---------------------------------------------------------------------------*/
FoamFile
{
    version     2.0;
    format      ascii;
    class       volVectorField;
    location    "14.8";
    object      U;
}
// * * * * * * * * * * * * * * * * * * * * * * * * * * * * * * * * * * * * * //

dimensions      [0 1 -1 0 0 0 0];

internalField   nonuniform List<vector> 
2000
(
(-0.0270268 0.0245445 1.85085e-20)
(0.0101443 0.0211369 0)
(0.12403 0.00434299 2.63366e-20)
(0.295883 -0.0148057 1.10533e-20)
(0.504881 -0.0292886 -2.05126e-20)
(0.726309 -0.0369417 -2.56556e-20)
(0.939594 -0.0374801 8.02026e-21)
(1.1254 -0.0359667 0)
(1.29796 -0.0267492 -5.75586e-21)
(1.4014 -0.0235114 0)
(-0.0192581 0.0168896 -9.10091e-21)
(0.0575937 0.00033795 7.37699e-21)
(0.230165 -0.0196336 -3.00847e-20)
(0.464313 -0.0342826 -3.77216e-20)
(0.721304 -0.0395325 -8.33213e-22)
(0.965935 -0.0367048 8.24969e-21)
(1.17635 -0.028993 -8.55839e-21)
(1.34448 -0.0212608 -6.78009e-21)
(1.47718 -0.0108254 5.75563e-21)
(1.55374 -0.0126892 9.2077e-21)
(-0.00421092 0.00752819 1.06412e-20)
(0.128195 -0.021146 -9.96727e-21)
(0.370989 -0.0386474 1.52065e-20)
(0.663427 -0.0427557 -1.35826e-21)
(0.947263 -0.0358748 1.11007e-20)
(1.18609 -0.0236483 9.45806e-21)
(1.36868 -0.0110839 8.02322e-21)
(1.4999 -0.00172466 6.77999e-21)
(1.59323 0.00548002 5.40461e-21)
(1.65865 0.0040841 -4.35276e-21)
(0.020477 -0.00297936 -6.75601e-22)
(0.224959 -0.0398368 -1.13171e-20)
(0.541281 -0.0473484 0)
(0.873351 -0.0368612 1.27832e-20)
(1.15443 -0.0190834 -1.33002e-20)
(1.36236 -0.00183921 0)
(1.5044 0.0109225 0)
(1.59907 0.017946 0)
(1.66777 0.022082 -5.40486e-21)
(1.71588 0.018692 7.87339e-21)
(0.0568945 -0.013288 2.90715e-20)
(0.34735 -0.0508061 -9.68854e-23)
(0.727372 -0.0415669 1.05381e-20)
(1.07047 -0.0168224 7.24141e-21)
(1.32301 0.00715156 6.74686e-21)
(1.48846 0.0243472 5.2092e-21)
(1.59234 0.0339507 0)
(1.66154 0.0376794 2.91976e-21)
(1.71489 0.0382004 -1.02647e-20)
(1.76322 0.0333439 1.29315e-20)
(0.106197 -0.0212799 -4.69996e-20)
(0.489475 -0.0490206 1.63395e-21)
(0.910732 -0.0201119 -2.08227e-20)
(1.23724 0.0145149 1.81266e-20)
(1.44765 0.0391799 -1.91334e-20)
(1.57188 0.0526927 6.41939e-21)
(1.64704 0.0578244 0)
(1.70064 0.0578225 -2.91998e-21)
(1.74889 0.0551862 2.08609e-21)
(1.79762 0.0499887 2.82815e-21)
(0.168014 -0.024297 0)
(0.640236 -0.0311919 0)
(1.075 0.0154044 -1.08601e-20)
(1.36652 0.0538946 1.011e-20)
(1.5326 0.0748272 -5.98317e-21)
(1.62297 0.0826363 5.61736e-21)
(1.67886 0.0827434 5.58461e-21)
(1.72472 0.0790325 -5.27873e-21)
(1.77141 0.0736633 -1.65463e-21)
(1.82257 0.0677218 7.7601e-22)
(0.239818 -0.0197154 9.76143e-21)
(0.786198 0.003044 0)
(1.21037 0.0620922 -4.91888e-21)
(1.4587 0.0987542 1.81823e-20)
(1.58476 0.112906 -1.03493e-20)
(1.6499 0.113955 0)
(1.69414 0.108907 0)
(1.73668 0.101495 0)
(1.78415 0.0935852 2.60012e-22)
(1.83744 0.0867432 -2.47156e-22)
(0.316964 -0.0056675 -5.1232e-21)
(0.915594 0.0515032 -3.54845e-22)
(1.31301 0.116852 -6.0972e-21)
(1.51741 0.147161 1.95174e-21)
(1.61044 0.152595 1.92316e-21)
(1.65808 0.146429 2.05563e-21)
(1.69588 0.136198 0)
(1.73763 0.125107 1.68781e-22)
(1.78627 0.114811 1.77611e-21)
(1.84126 0.10627 -1.29139e-21)
(0.393446 0.0184965 0)
(1.02066 0.110683 -3.9894e-21)
(1.38275 0.176708 0)
(1.54694 0.197532 -1.23377e-21)
(1.61441 0.193156 -1.13063e-21)
(1.65062 0.179631 -6.73102e-22)
(1.68531 0.164225 0)
(1.72737 0.149438 -1.68798e-22)
(1.77723 0.136681 -4.17457e-22)
(1.83356 0.125763 -8.8091e-22)
(-0.00548167 0.00521498 0)
(-0.0220325 0.0097098 -1.01347e-21)
(-0.0452546 0.0110176 0)
(-0.0669682 0.0107866 -1.33617e-21)
(-0.085436 0.00979086 -4.22343e-22)
(-0.100442 0.00845652 7.70427e-22)
(-0.112138 0.00705783 -7.25547e-22)
(-0.120927 0.00579575 6.75229e-22)
(-0.127423 0.00484778 1.1427e-23)
(-0.132611 0.0043883 5.82543e-22)
(-0.00672536 0.015219 -3.18098e-21)
(-0.0236167 0.0283694 1.99841e-21)
(-0.0457136 0.0322299 -1.95045e-21)
(-0.0656441 0.0315324 8.88349e-22)
(-0.0819453 0.0285362 4.21502e-21)
(-0.094463 0.0244885 -1.57297e-21)
(-0.103352 0.0201941 0)
(-0.108968 0.0162651 -6.72971e-22)
(-0.111786 0.0132581 -6.22722e-22)
(-0.112999 0.0117737 0)
(-0.00907524 0.0239868 2.1214e-21)
(-0.0265868 0.044839 0)
(-0.0464543 0.0510125 5.93187e-21)
(-0.0628466 0.0498157 -7.41981e-21)
(-0.0747928 0.0448102 1.76478e-21)
(-0.0822833 0.037956 0)
(-0.0855043 0.0305155 0)
(-0.0847917 0.0235046 0)
(-0.0803076 0.0179256 5.02274e-21)
(-0.0729239 0.0150819 -4.77361e-21)
(-0.0122514 0.0308987 0)
(-0.0305383 0.0579227 -4.49196e-21)
(-0.0470743 0.0659032 8.3355e-21)
(-0.058089 0.0640943 -3.88618e-21)
(-0.0632958 0.0570905 3.60281e-21)
(-0.0629224 0.047391 -1.00577e-20)
(-0.0572327 0.0365562 1.32873e-22)
(-0.0467155 0.0258724 5.8191e-21)
(-0.0313888 0.0169843 5.06804e-21)
(-0.00912423 0.0132946 -7.15405e-21)
(-0.01592 0.0356308 4.84232e-21)
(-0.0348757 0.0667399 -9.66415e-21)
(-0.0468129 0.0756587 -1.42771e-22)
(-0.0502674 0.0729401 9.37353e-23)
(-0.0457575 0.0639343 3.65285e-21)
(-0.0338364 0.0515087 -1.06462e-20)
(-0.014912 0.0373386 0)
(0.0103864 0.0227452 -3.00447e-21)
(0.0421851 0.00989802 2.69513e-21)
(0.0837749 0.00421149 -9.65206e-21)
(-0.0197631 0.0381494 -2.15377e-22)
(-0.0388003 0.0707578 1.00237e-20)
(-0.0443804 0.079289 4.54311e-21)
(-0.0373216 0.0750338 4.61202e-21)
(-0.0189522 0.0638749 3.87421e-21)
(0.00979514 0.048982 3.5791e-21)
(0.0482366 0.0320995 0)
(0.0952324 0.0143691 3.00427e-21)
(0.14944 -0.00260562 7.58595e-21)
(0.22285 -0.0109634 -2.92906e-21)
(-0.0235085 0.0386482 3.13298e-23)
(-0.0412096 0.0697801 5.48934e-21)
(-0.0376652 0.0761742 0)
(-0.0157681 0.069355 -8.48649e-21)
(0.022397 0.0556492 8.33527e-21)
(0.0753427 0.0385575 0)
(0.141712 0.0200592 0)
(0.219573 0.00150432 0)
(0.301445 -0.0179762 -5.59702e-21)
(0.420053 -0.0270546 -9.69864e-21)
(-0.0268408 0.0373741 -6.3368e-21)
(-0.0405055 0.0639798 5.93586e-21)
(-0.0232412 0.0662183 1.08401e-20)
(0.0199931 0.0556551 4.56819e-22)
(0.0862867 0.0390926 8.70781e-21)
(0.172822 0.0203417 7.86033e-21)
(0.276241 0.00169273 7.07803e-21)
(0.393106 -0.0144782 6.30853e-21)
(0.505621 -0.0331532 5.5963e-21)
(0.674432 -0.0381817 -4.41635e-21)
(-0.0291902 0.0346072 -2.16943e-20)
(-0.0342083 0.053697 -5.90274e-21)
(0.00395696 0.04994 -2.19099e-20)
(0.0779822 0.0350333 -9.74387e-21)
(0.183025 0.0161909 3.80926e-22)
(0.312845 -0.00253448 -7.521e-21)
(0.459802 -0.0187443 7.48625e-21)
(0.615677 -0.0299246 -6.30771e-21)
(0.759468 -0.0430346 5.69625e-21)
(0.956998 -0.0394382 -9.68308e-21)
(-0.0297137 0.0303919 1.48037e-20)
(-0.0188046 0.0392474 0)
(0.050625 0.0286208 1.15929e-20)
(0.167472 0.0101419 -1.47196e-23)
(0.32186 -0.00865931 4.90534e-22)
(0.500266 -0.0239765 7.93009e-21)
(0.688682 -0.0337359 -2.23516e-20)
(0.87033 -0.0387514 0)
(1.04059 -0.0410896 -5.69549e-21)
(1.21609 -0.0304715 0)
(-0.137575 0.00435094 0)
(-0.142802 0.00388756 -5.21061e-22)
(-0.147327 0.00331134 1.02566e-21)
(-0.151113 0.00275869 -4.42448e-22)
(-0.154247 0.00224324 0)
(-0.156768 0.00176401 4.336e-22)
(-0.158704 0.00131992 -4.35749e-22)
(-0.160082 0.000911156 0)
(-0.160947 0.000540184 0)
(-0.161367 0.000196815 4.22655e-23)
(-0.161387 -0.000107343 0)
(-0.16105 -0.000360369 0)
(-0.160417 -0.00055068 0)
(-0.159569 -0.000666267 0)
(-0.158604 -0.000696912 -3.96324e-23)
(-0.157635 -0.000638567 3.98378e-23)
(-0.15679 -0.00049929 0)
(-0.156198 -0.000304047 -7.75136e-24)
(-0.155908 -9.5055e-05 7.79213e-24)
(-0.155787 6.58092e-05 0)
(-0.115221 0.0118852 0)
(-0.11933 0.0104915 1.36329e-22)
(-0.122671 0.00886375 0)
(-0.125308 0.00731206 1.88321e-21)
(-0.127426 0.00585556 -1.83361e-21)
(-0.129054 0.00449863 1.14163e-22)
(-0.130203 0.00324434 -8.21261e-22)
(-0.130887 0.00209439 1.69009e-21)
(-0.131166 0.00102335 -1.3804e-21)
(-0.131092 3.53503e-05 7.51977e-22)
(-0.130674 -0.000840456 5.80166e-22)
(-0.129947 -0.0015749 -1.02867e-21)
(-0.128961 -0.00213568 5.17364e-22)
(-0.127778 -0.00248695 2.4306e-22)
(-0.126478 -0.00259516 -1.91748e-22)
(-0.125159 -0.00244094 3.5163e-23)
(-0.123938 -0.00203705 2.6816e-23)
(-0.122946 -0.00144766 3.01248e-23)
(-0.122253 -0.000799968 -3.02707e-23)
(-0.121826 -0.000295691 3.50476e-24)
(-0.0700368 0.0164715 -1.46766e-22)
(-0.0722824 0.013795 -1.36566e-22)
(-0.0733674 0.0113754 -1.34929e-22)
(-0.0738772 0.00910704 0)
(-0.0741083 0.00694831 -2.13616e-21)
(-0.0740532 0.00493458 1.66904e-21)
(-0.073696 0.00309777 0)
(-0.0730819 0.00137863 -2.02822e-22)
(-0.0722539 -0.000252999 -9.28258e-23)
(-0.0711887 -0.00175186 1.13423e-21)
(-0.069893 -0.00308572 -1.37322e-22)
(-0.0683909 -0.00421975 -1.31744e-21)
(-0.0667096 -0.00510718 -6.11823e-23)
(-0.0648836 -0.00569114 -5.18877e-23)
(-0.0629585 -0.00591181 -4.34404e-23)
(-0.0609976 -0.00572059 8.7221e-23)
(-0.0590916 -0.0051063 -8.61924e-23)
(-0.0573573 -0.00413382 -8.94511e-23)
(-0.0558769 -0.00299505 -1.68963e-23)
(-0.0547728 -0.00207067 5.46061e-25)
(0.000782712 0.0146543 -4.53929e-21)
(-0.000209689 0.0123054 2.40602e-22)
(0.00215843 0.00966895 3.25222e-22)
(0.00438569 0.00686534 4.29804e-21)
(0.0065523 0.00434527 3.76402e-22)
(0.00881613 0.00205805 1.16633e-22)
(0.0111045 -0.000138958 -3.20187e-21)
(0.0133567 -0.00226092 1.94895e-21)
(0.0156634 -0.00424214 1.59481e-21)
(0.0180769 -0.00604857 -1.41719e-21)
(0.020575 -0.00766317 1.41991e-22)
(0.0231432 -0.00905225 1.40309e-21)
(0.0257738 -0.0101633 6.06733e-23)
(0.028458 -0.0109288 4.84321e-22)
(0.0311841 -0.0112706 -3.37953e-22)
(0.0339328 -0.0111091 -2.38055e-22)
(0.036664 -0.0103866 2.14209e-22)
(0.0393059 -0.00910979 0)
(0.0418137 -0.0074524 2.82233e-23)
(0.0439792 -0.00596588 2.93186e-24)
(0.102678 0.0064787 9.55095e-21)
(0.105984 0.00600829 -4.33615e-21)
(0.109247 0.00326782 4.64665e-21)
(0.11393 0.000367451 0)
(0.118673 -0.00222266 -2.53076e-22)
(0.122946 -0.00464604 -3.75439e-21)
(0.126893 -0.00701778 3.09873e-23)
(0.130761 -0.00927205 2.67043e-22)
(0.134592 -0.011353 3.24867e-21)
(0.138366 -0.013252 1.75357e-22)
(0.142073 -0.0149535 0)
(0.145716 -0.0164223 -1.399e-22)
(0.149296 -0.0176064 0)
(0.152818 -0.0184383 -1.03229e-22)
(0.15629 -0.0188391 0)
(0.159724 -0.0187174 0)
(0.163135 -0.0179859 4.94904e-23)
(0.166519 -0.0165709 -4.94529e-23)
(0.169917 -0.0145234 4.22831e-23)
(0.173252 -0.0123599 -1.08153e-23)
(0.24799 -0.00560711 0)
(0.254197 -0.00497733 -3.04638e-22)
(0.257649 -0.0074002 -9.09532e-21)
(0.263047 -0.0102217 8.81634e-21)
(0.268936 -0.0126931 -2.64021e-22)
(0.274443 -0.0149301 0)
(0.279546 -0.0170936 -3.56818e-21)
(0.284436 -0.019196 6.64526e-21)
(0.289189 -0.0211776 -3.49149e-21)
(0.293794 -0.0229946 -1.79945e-22)
(0.298238 -0.0246175 -1.61005e-22)
(0.302517 -0.0260066 -1.41625e-22)
(0.306633 -0.0271105 0)
(0.310587 -0.0278642 6.40297e-22)
(0.314395 -0.0282007 -1.4161e-21)
(0.318072 -0.0280349 5.90675e-22)
(0.321677 -0.0272964 -4.60284e-23)
(0.325238 -0.0258741 -2.95919e-23)
(0.328857 -0.023747 9.51e-24)
(0.332939 -0.0209301 -9.5216e-24)
(0.446132 -0.0191944 9.61281e-21)
(0.453137 -0.0174737 0)
(0.454658 -0.0199348 -3.0383e-22)
(0.458673 -0.0226353 5.61949e-22)
(0.464252 -0.0246367 5.31439e-22)
(0.469631 -0.0264632 2.52018e-22)
(0.47454 -0.0284076 2.351e-22)
(0.479264 -0.0303729 -3.10456e-21)
(0.483904 -0.0322232 3.70794e-21)
(0.488401 -0.0338991 3.07348e-21)
(0.492697 -0.0353698 -2.55081e-21)
(0.496765 -0.0365893 2.79738e-22)
(0.500604 -0.0375094 -8.83596e-22)
(0.504195 -0.0380662 2.56203e-22)
(0.507566 -0.0382184 8.86142e-22)
(0.510705 -0.0378817 6.15323e-23)
(0.513725 -0.0370528 -5.66542e-23)
(0.516621 -0.0355679 8.86275e-23)
(0.519504 -0.0336614 9.93573e-23)
(0.523177 -0.0303676 3.20934e-24)
(0.694296 -0.0286398 0)
(0.698826 -0.0272208 -1.02971e-20)
(0.697588 -0.0305813 1.05568e-20)
(0.698974 -0.0333681 -2.83834e-22)
(0.702575 -0.0351327 -5.35823e-22)
(0.706379 -0.0369034 -2.51795e-22)
(0.709944 -0.0388821 -4.6853e-22)
(0.713471 -0.0408129 0)
(0.716983 -0.0425491 -1.96961e-22)
(0.720344 -0.04406 -1.77641e-22)
(0.723471 -0.0453289 -1.57073e-22)
(0.726306 -0.0463039 -2.74861e-22)
(0.728865 -0.046955 0)
(0.731087 -0.0472133 0)
(0.733071 -0.0470911 -7.86362e-23)
(0.734709 -0.0464653 -5.26741e-22)
(0.736275 -0.0454878 3.63108e-22)
(0.737554 -0.0437738 -2.66499e-23)
(0.738954 -0.0421785 -4.41098e-23)
(0.740711 -0.0386637 1.33726e-23)
(0.967477 -0.0294921 1.01115e-20)
(0.968579 -0.0304645 0)
(0.966261 -0.0355343 0)
(0.966536 -0.0387784 -8.88548e-21)
(0.968519 -0.0409727 7.51588e-22)
(0.970509 -0.0433259 1.60436e-20)
(0.972255 -0.0457242 -7.47584e-21)
(0.97388 -0.0478364 0)
(0.975339 -0.0496001 0)
(0.976495 -0.0510298 0)
(0.977337 -0.0521342 7.87635e-23)
(0.977807 -0.0528629 2.01016e-22)
(0.978014 -0.0532357 1.66978e-21)
(0.977828 -0.0531657 -1.61166e-21)
(0.977526 -0.0527658 5.30508e-22)
(0.976777 -0.0518069 -4.69354e-22)
(0.976244 -0.0507018 0)
(0.975117 -0.0487035 1.28286e-23)
(0.9748 -0.0473338 1.3138e-23)
(0.973596 -0.0438277 0)
(1.23184 -0.0277327 -1.72643e-22)
(1.23686 -0.034285 -1.04147e-20)
(1.23805 -0.0398294 1.03063e-20)
(1.23886 -0.042601 0)
(1.23881 -0.0447482 8.27899e-21)
(1.23776 -0.0469378 -1.58281e-20)
(1.23612 -0.0489165 7.55626e-21)
(1.23413 -0.050556 0)
(1.23186 -0.051912 2.8645e-21)
(1.22929 -0.0529843 -5.38341e-21)
(1.22655 -0.0537799 2.59733e-21)
(1.22356 -0.0542168 -6.51171e-23)
(1.2206 -0.0543568 0)
(1.21737 -0.0540491 -1.35152e-21)
(1.21444 -0.0535139 1.80444e-21)
(1.21106 -0.0523742 -5.06094e-22)
(1.20851 -0.0512879 -2.59622e-22)
(1.20503 -0.0492089 1.91866e-22)
(1.20344 -0.0480408 7.72198e-23)
(1.19963 -0.0447793 0)
(1.50452 -0.0205857 0)
(1.49127 -0.0261119 0)
(1.48047 -0.0300199 0)
(1.47092 -0.0330507 0)
(1.46223 -0.0358376 0)
(1.45439 -0.0383768 0)
(1.44738 -0.0406036 0)
(1.44101 -0.0425206 0)
(1.43515 -0.0441782 0)
(1.42959 -0.0455407 0)
(1.42439 -0.0466465 0)
(1.4193 -0.0473992 0)
(1.41462 -0.0479115 0)
(1.40984 -0.0479819 0)
(1.4057 -0.0479073 0)
(1.40109 -0.0472267 0)
(1.39773 -0.0466843 0)
(1.3931 -0.0451792 0)
(1.39105 -0.0445238 0)
(1.38585 -0.0420758 0)
(1.62882 -0.012629 0)
(1.62363 -0.0162744 0)
(1.6182 -0.0199081 0)
(1.61243 -0.0236753 0)
(1.60656 -0.0273156 0)
(1.6008 -0.0305936 0)
(1.59527 -0.0334604 0)
(1.58989 -0.0359193 0)
(1.58471 -0.0380305 0)
(1.57959 -0.0397617 0)
(1.57472 -0.0411818 0)
(1.56982 -0.042194 0)
(1.56531 -0.0429472 0)
(1.56059 -0.0432308 0)
(1.55656 -0.043378 0)
(1.55192 -0.0429242 0)
(1.54864 -0.0426127 0)
(1.54387 -0.0414098 0)
(1.54185 -0.0409561 0)
(1.53636 -0.038954 0)
(1.72711 -0.00755841 0)
(1.72446 -0.0119779 0)
(1.72085 -0.0158813 0)
(1.71689 -0.019702 0)
(1.71301 -0.0233277 0)
(1.70928 -0.0265798 0)
(1.70565 -0.0294284 0)
(1.70198 -0.0318684 0)
(1.69836 -0.0339685 0)
(1.69464 -0.0356945 0)
(1.69106 -0.0371315 0)
(1.68733 -0.038173 0)
(1.6839 -0.0389836 0)
(1.68017 -0.0393412 0)
(1.67705 -0.0395907 0)
(1.67328 -0.0392698 0)
(1.67073 -0.039097 0)
(1.66676 -0.0381033 0)
(1.66521 -0.037777 0)
(1.66057 -0.03608 0)
(1.81454 -0.00351227 0)
(1.81364 -0.00862771 0)
(1.81118 -0.0129536 0)
(1.80819 -0.0168621 0)
(1.80537 -0.0204497 0)
(1.80276 -0.0236574 0)
(1.80028 -0.0264775 0)
(1.79772 -0.0288877 0)
(1.79517 -0.0309612 0)
(1.79248 -0.0326597 0)
(1.7899 -0.0340874 0)
(1.78713 -0.0351283 0)
(1.78463 -0.0359665 0)
(1.78181 -0.0363645 0)
(1.77951 -0.0366849 0)
(1.77661 -0.0364543 0)
(1.77473 -0.0363884 0)
(1.77163 -0.0355393 0)
(1.7705 -0.035317 0)
(1.76685 -0.0338186 0)
(1.90075 -0.000889381 0)
(1.90094 -0.00631312 0)
(1.89943 -0.0108816 0)
(1.89718 -0.0148268 0)
(1.89499 -0.0183539 0)
(1.893 -0.0214977 0)
(1.89113 -0.0242793 0)
(1.88918 -0.0266584 0)
(1.8872 -0.0287072 0)
(1.88507 -0.0303771 0)
(1.88302 -0.031791 0)
(1.88078 -0.0328216 0)
(1.87878 -0.0336755 0)
(1.87646 -0.0340949 0)
(1.87462 -0.0344671 0)
(1.87219 -0.0342954 0)
(1.87069 -0.0343112 0)
(1.86806 -0.0335582 0)
(1.86716 -0.0334163 0)
(1.86407 -0.0320455 0)
(1.99194 0.000591563 0)
(1.99257 -0.00480826 0)
(1.99156 -0.00939212 0)
(1.98967 -0.0132981 0)
(1.98769 -0.0167399 0)
(1.98585 -0.0197904 0)
(1.98415 -0.0224988 0)
(1.98235 -0.0248169 0)
(1.98052 -0.0268185 0)
(1.97851 -0.0284419 0)
(1.97657 -0.0298255 0)
(1.97443 -0.0308303 0)
(1.97252 -0.0316832 0)
(1.97027 -0.0321082 0)
(1.96852 -0.032513 0)
(1.96613 -0.0323813 0)
(1.96469 -0.0324558 0)
(1.96208 -0.0317759 0)
(1.96121 -0.0316918 0)
(1.95812 -0.0304251 0)
(2.08894 0.0016626 0)
(2.08949 -0.00348577 0)
(2.08852 -0.00793596 0)
(2.08656 -0.0117526 0)
(2.08442 -0.0151007 0)
(2.08235 -0.0180478 0)
(2.08041 -0.0206636 0)
(2.07838 -0.0229028 0)
(2.07634 -0.0248436 0)
(2.07408 -0.0264141 0)
(2.07193 -0.0277603 0)
(2.06953 -0.0287364 0)
(2.06741 -0.0295802 0)
(2.06488 -0.0300083 0)
(2.06294 -0.0304344 0)
(2.06024 -0.0303403 0)
(2.05865 -0.0304575 0)
(2.05567 -0.0298499 0)
(2.0547 -0.0298077 0)
(2.05116 -0.0286516 0)
(2.18762 0.00291514 0)
(2.1878 -0.00190064 0)
(2.18655 -0.00615683 0)
(2.18429 -0.00985434 0)
(2.18178 -0.0130984 0)
(2.17928 -0.0159374 0)
(2.17691 -0.0184521 0)
(2.17445 -0.0206065 0)
(2.172 -0.0224822 0)
(2.16932 -0.0240032 0)
(2.16677 -0.0253135 0)
(2.16393 -0.0262688 0)
(2.16145 -0.0271035 0)
(2.15847 -0.0275441 0)
(2.1562 -0.0279874 0)
(2.15303 -0.0279422 0)
(2.15117 -0.0280939 0)
(2.14767 -0.0275734 0)
(2.14654 -0.0275639 0)
(2.14237 -0.0265405 0)
(2.28103 0.00456696 0)
(2.28083 7.8632e-05 0)
(2.27929 -0.00397295 0)
(2.27676 -0.00753158 0)
(2.27394 -0.0106544 0)
(2.27108 -0.0133764 0)
(2.26835 -0.0157838 0)
(2.2655 -0.0178527 0)
(2.26269 -0.0196623 0)
(2.25963 -0.0211408 0)
(2.25674 -0.022419 0)
(2.25352 -0.0233657 0)
(2.25072 -0.0241951 0)
(2.24736 -0.0246631 0)
(2.24482 -0.0251248 0)
(2.24126 -0.0251464 0)
(2.23918 -0.0253304 0)
(2.23526 -0.0249193 0)
(2.234 -0.0249383 0)
(2.22934 -0.0240761 0)
(2.36247 0.00642677 0)
(2.36215 0.00225094 0)
(2.36062 -0.00159495 0)
(2.35816 -0.00499716 0)
(2.35537 -0.00797629 0)
(2.3525 -0.0105656 0)
(2.34971 -0.0128549 0)
(2.34679 -0.0148339 0)
(2.34392 -0.0165737 0)
(2.34079 -0.0180123 0)
(2.33785 -0.0192596 0)
(2.33455 -0.0202068 0)
(2.3317 -0.021034 0)
(2.32828 -0.021542 0)
(2.32569 -0.0220244 0)
(2.32207 -0.0221283 0)
(2.31997 -0.0223448 0)
(2.31598 -0.0220616 0)
(2.31471 -0.0221079 0)
(2.31001 -0.0214291 0)
(2.42896 0.00797686 0)
(2.42902 0.0041212 0)
(2.42803 0.000504864 0)
(2.42618 -0.00270768 0)
(2.42397 -0.00551299 0)
(2.42162 -0.00794828 0)
(2.41928 -0.0101035 0)
(2.4168 -0.0119808 0)
(2.41434 -0.0136399 0)
(2.41163 -0.0150316 0)
(2.40907 -0.0162418 0)
(2.40619 -0.0171873 0)
(2.40368 -0.0180091 0)
(2.40066 -0.0185578 0)
(2.39839 -0.0190588 0)
(2.39519 -0.0192467 0)
(2.39334 -0.0194939 0)
(2.38982 -0.0193409 0)
(2.3887 -0.0194131 0)
(2.38457 -0.018919 0)
(2.48446 0.00853417 0)
(2.4854 0.00503772 0)
(2.48549 0.00170733 0)
(2.48481 -0.00126121 0)
(2.48373 -0.0038504 0)
(2.48243 -0.00609903 0)
(2.48106 -0.00809324 0)
(2.47952 -0.00984282 0)
(2.47795 -0.011398 0)
(2.47614 -0.0127194 0)
(2.4744 -0.0138732 0)
(2.47238 -0.0147963 0)
(2.47063 -0.0155978 0)
(2.46845 -0.0161674 0)
(2.46682 -0.0166749 0)
(2.46449 -0.016926 0)
(2.46315 -0.0171952 0)
(2.46057 -0.0171485 0)
(2.45975 -0.0172424 0)
(2.45672 -0.0169033 0)
(2.54077 0.00755607 0)
(2.54284 0.00448246 0)
(2.54425 0.00151355 0)
(2.545 -0.00114383 0)
(2.54531 -0.00346429 0)
(2.54531 -0.0054796 0)
(2.54515 -0.00727175 0)
(2.54478 -0.00885043 0)
(2.54431 -0.0102631 0)
(2.54361 -0.0114719 0)
(2.54289 -0.0125352 0)
(2.54193 -0.0133956 0)
(2.54108 -0.0141478 0)
(2.53993 -0.0146977 0)
(2.53907 -0.0151881 0)
(2.53775 -0.015459 0)
(2.53702 -0.0157331 0)
(2.53552 -0.015744 0)
(2.53506 -0.0158507 0)
(2.53329 -0.0156085 0)
(2.61426 0.00504137 0)
(2.61711 0.00244753 0)
(2.61952 -8.39111e-05 0)
(2.62136 -0.00236237 0)
(2.62275 -0.00436181 0)
(2.62376 -0.00609696 0)
(2.62453 -0.00764543 0)
(2.62506 -0.00900741 0)
(2.62543 -0.0102359 0)
(2.62556 -0.0112849 0)
(2.62561 -0.0122189 0)
(2.62542 -0.0129696 0)
(2.62525 -0.0136383 0)
(2.62483 -0.0141204 0)
(2.62455 -0.0145646 0)
(2.62394 -0.0148039 0)
(2.62364 -0.0150611 0)
(2.62287 -0.0150728 0)
(2.62268 -0.0151803 0)
(2.62173 -0.0149689 0)
(2.71716 0.00175312 0)
(2.71991 -0.000341324 0)
(2.72241 -0.00239475 0)
(2.72446 -0.00425787 0)
(2.72608 -0.00591094 0)
(2.72728 -0.00734377 0)
(2.72822 -0.0086283 0)
(2.72887 -0.00974834 0)
(2.72938 -0.0107683 0)
(2.72962 -0.0116281 0)
(2.7298 -0.0124078 0)
(2.72968 -0.0130178 0)
(2.72962 -0.0135795 0)
(2.72922 -0.0139607 0)
(2.72902 -0.0143377 0)
(2.7284 -0.0145101 0)
(2.72817 -0.0147335 0)
(2.72735 -0.0147076 0)
(2.72719 -0.0148059 0)
(2.72616 -0.0145817 0)
(2.84799 -0.00109284 0)
(2.84971 -0.00271984 0)
(2.85136 -0.00431484 0)
(2.85262 -0.00577713 0)
(2.85355 -0.00709819 0)
(2.85403 -0.00824309 0)
(2.85431 -0.00927615 0)
(2.85423 -0.0101638 0)
(2.85412 -0.0109814 0)
(2.85364 -0.0116558 0)
(2.85325 -0.0122824 0)
(2.85241 -0.0127522 0)
(2.85184 -0.0132052 0)
(2.85068 -0.0134844 0)
(2.85004 -0.0137902 0)
(2.8486 -0.0138933 0)
(2.84803 -0.0140775 0)
(2.84628 -0.0140113 0)
(2.84592 -0.0140956 0)
(2.84381 -0.0138567 0)
(2.98954 -0.00264374 0)
(2.98991 -0.00386462 0)
(2.9903 -0.00505724 0)
(2.99032 -0.00616162 0)
(2.99013 -0.00718111 0)
(2.98943 -0.00806666 0)
(2.98864 -0.00887267 0)
(2.98739 -0.00955467 0)
(2.98627 -0.0101902 0)
(2.98461 -0.0107025 0)
(2.98328 -0.0111911 0)
(2.98125 -0.0115419 0)
(2.97983 -0.0118965 0)
(2.97744 -0.0120942 0)
(2.97607 -0.012335 0)
(2.9733 -0.0123902 0)
(2.97216 -0.0125374 0)
(2.96894 -0.0124547 0)
(2.96825 -0.0125241 0)
(2.96443 -0.0122995 0)
(3.11844 -0.00289184 0)
(3.11772 -0.00375533 0)
(3.11703 -0.00459109 0)
(3.11595 -0.00536728 0)
(3.11474 -0.00609595 0)
(3.11294 -0.00673056 0)
(3.11117 -0.00731316 0)
(3.1088 -0.00780037 0)
(3.10671 -0.00825895 0)
(3.1039 -0.00862218 0)
(3.10166 -0.00897607 0)
(3.09843 -0.00922213 0)
(3.09618 -0.00948025 0)
(3.09252 -0.0096139 0)
(3.09043 -0.00979001 0)
(3.08629 -0.00981843 0)
(3.08458 -0.00992711 0)
(3.07983 -0.00985338 0)
(3.07882 -0.00990539 0)
(3.07321 -0.00972591 0)
(3.21582 -0.00212173 0)
(3.21433 -0.00266573 0)
(3.21289 -0.00317818 0)
(3.211 -0.0036474 0)
(3.20905 -0.0040881 0)
(3.20644 -0.00447124 0)
(3.20394 -0.00482331 0)
(3.20072 -0.00511557 0)
(3.19793 -0.00539115 0)
(3.19423 -0.00560776 0)
(3.19131 -0.0058203 0)
(3.18715 -0.00596634 0)
(3.18427 -0.00612122 0)
(3.17962 -0.0061991 0)
(3.17699 -0.00630427 0)
(3.17175 -0.00631808 0)
(3.16964 -0.00638247 0)
(3.16366 -0.00633371 0)
(3.16241 -0.00636413 0)
(3.15539 -0.00624944 0)
(3.26856 -0.000625088 0)
(3.26662 -0.000843728 0)
(3.26475 -0.00104143 0)
(3.26239 -0.00121748 0)
(3.26001 -0.00137946 0)
(3.25693 -0.00151922 0)
(3.25402 -0.00164592 0)
(3.25032 -0.00175081 0)
(3.24712 -0.00184831 0)
(3.24292 -0.00192532 0)
(3.23963 -0.00199965 0)
(3.23494 -0.0020516 0)
(3.23172 -0.00210522 0)
(3.22651 -0.00213343 0)
(3.22359 -0.00216936 0)
(3.21775 -0.00217551 0)
(3.2154 -0.00219709 0)
(3.20875 -0.00218182 0)
(3.20738 -0.00219173 0)
(3.19957 -0.00215366 0)
(1.89631 0.112347 8.60723e-22)
(1.90239 0.0988073 0)
(1.89677 0.0843975 -4.28432e-23)
(1.88161 0.069514 -1.00687e-21)
(1.85556 0.054279 -3.41413e-21)
(1.82344 0.039869 0)
(1.78089 0.0247675 -7.29132e-21)
(1.72689 0.0134753 0)
(1.68083 -0.00248598 -9.63186e-21)
(1.52219 -0.0158848 1.50231e-22)
(1.97021 0.102861 -1.15864e-21)
(1.97352 0.0911734 1.50291e-22)
(1.96594 0.0784726 -1.50596e-22)
(1.94802 0.0664814 -1.28661e-21)
(1.92247 0.0530173 -7.91356e-22)
(1.8847 0.0419979 3.30553e-23)
(1.85364 0.0283123 0)
(1.78399 0.0186191 5.27075e-21)
(1.77644 0.00812366 0)
(1.63378 -0.00812539 8.45066e-21)
(2.05189 0.0933463 2.45654e-21)
(2.05153 0.0832994 0)
(2.04427 0.0716654 -1.23482e-22)
(2.02104 0.0615791 -1.10678e-21)
(1.99976 0.0496611 7.59662e-22)
(1.95152 0.0403936 0)
(1.93198 0.0298896 -9.91584e-22)
(1.84922 0.0196052 -5.34932e-21)
(1.85025 0.0136709 0)
(1.72905 -0.00154829 -8.36401e-21)
(2.13662 0.0854562 -1.14862e-21)
(2.13242 0.076516 4.26011e-21)
(2.12806 0.0661875 0)
(2.09964 0.0570473 3.58776e-21)
(2.08426 0.0471069 1.1352e-22)
(2.02826 0.0377982 -1.46469e-22)
(2.01365 0.0301945 1.08562e-21)
(1.9277 0.0190997 3.85773e-23)
(1.92166 0.014674 2.68056e-21)
(1.8142 0.00274965 0)
(2.21922 0.078967 0)
(2.21215 0.0707227 -4.17143e-21)
(2.21152 0.0619902 -4.29846e-21)
(2.18084 0.0531922 4.72413e-22)
(2.1703 0.0452294 -2.77866e-22)
(2.11314 0.0355992 -9.73732e-23)
(2.09853 0.0295223 -2.87067e-21)
(2.01593 0.0189527 7.47191e-24)
(2.00257 0.0142401 -1.82709e-21)
(1.89933 0.0052237 -2.96752e-21)
(2.2945 0.0733907 1.64146e-21)
(2.28638 0.0656717 2.89465e-22)
(2.28902 0.0584139 -9.80995e-22)
(2.25973 0.0499567 2.25814e-22)
(2.2529 0.0433664 -5.12073e-21)
(2.19979 0.0341413 0)
(2.1858 0.0284918 3.07276e-21)
(2.10839 0.0193795 -8.57199e-23)
(2.09365 0.0140364 -4.6522e-24)
(1.99042 0.00653582 4.18471e-21)
(2.35824 0.0682572 -1.64953e-21)
(2.3507 0.0611513 -2.89802e-21)
(2.35627 0.0550004 4.3425e-21)
(2.33065 0.0472357 -7.22285e-21)
(2.32797 0.0414222 -1.29719e-21)
(2.28104 0.0332487 -4.49476e-21)
(2.27133 0.0276799 1.42028e-22)
(2.1996 0.0199137 -2.19815e-22)
(2.18882 0.0142913 -7.71485e-22)
(2.08774 0.00731178 -1.23437e-21)
(2.40837 0.0631263 0)
(2.40229 0.056794 6.34827e-21)
(2.41084 0.0514793 -6.25767e-22)
(2.38946 0.0446904 3.70213e-21)
(2.39197 0.0394652 -8.18537e-22)
(2.3515 0.0324715 9.54568e-21)
(2.34886 0.0271887 -3.85846e-21)
(2.28427 0.0202927 0)
(2.27996 0.0149322 0)
(2.18689 0.00815127 0)
(2.44595 0.0576815 0)
(2.44157 0.0521695 -6.00833e-21)
(2.45297 0.0476238 -3.67011e-22)
(2.43543 0.0418433 4.23608e-21)
(2.44302 0.0373312 6.86415e-21)
(2.40885 0.0313443 -5.64202e-21)
(2.41317 0.0267318 4.68151e-21)
(2.35801 0.0204836 -2.42746e-22)
(2.35973 0.0158115 0)
(2.28073 0.00935426 1.80418e-21)
(2.47591 0.0517012 2.27749e-22)
(2.4733 0.046939 3.44647e-21)
(2.48651 0.0431884 5.14807e-21)
(2.47224 0.0382986 -2.21712e-22)
(2.48283 0.0346555 5.45339e-22)
(2.45475 0.0295313 -7.11806e-21)
(2.46307 0.0258419 6.18584e-21)
(2.41886 0.0203514 -2.86703e-22)
(2.42395 0.016525 0)
(2.36232 0.0107692 -4.2674e-21)
(2.50728 0.0449136 0)
(2.50645 0.0408698 3.56874e-21)
(2.51961 0.0379105 2.65232e-22)
(2.50795 0.0338275 0)
(2.51821 0.031048 0)
(2.49534 0.0267993 6.34564e-21)
(2.50335 0.0240071 -5.12076e-21)
(2.46921 0.0195361 -2.63158e-22)
(2.47417 0.016466 1.57357e-22)
(2.4285 0.011866 2.55775e-21)
(2.552 0.0373227 0)
(2.55257 0.0340266 -6.85292e-21)
(2.56373 0.0317296 -6.96686e-21)
(2.55365 0.0284536 9.87144e-22)
(2.56051 0.0263235 -6.17984e-22)
(2.54083 0.0230407 -4.4011e-22)
(2.54489 0.0208717 7.98071e-22)
(2.51699 0.0176279 4.78135e-21)
(2.51911 0.0150865 4.11433e-22)
(2.48318 0.0119514 -1.17014e-22)
(2.62113 0.0294404 0)
(2.62209 0.0268902 3.71037e-21)
(2.63016 0.0250132 -3.81286e-22)
(2.62015 0.0225409 3.78139e-22)
(2.62241 0.0207362 0)
(2.60302 0.0184217 0)
(2.60192 0.0165219 0)
(2.57477 0.014476 -5.41175e-21)
(2.57332 0.0122244 4.90278e-21)
(2.53846 0.0104929 0)
(2.7193 0.022052 0)
(2.71923 0.0201745 2.40365e-21)
(2.72453 0.018508 2.96394e-21)
(2.71317 0.0167317 3.64067e-21)
(2.71202 0.0150138 -6.73748e-22)
(2.69051 0.0134671 3.86091e-21)
(2.68595 0.0116169 -3.22823e-21)
(2.65522 0.0104196 0)
(2.65154 0.00833192 5.3539e-22)
(2.61122 0.00750897 -4.45766e-21)
(2.84009 0.0160028 -5.63855e-22)
(2.83808 0.0146105 -1.95912e-21)
(2.84198 0.0130846 -3.83516e-21)
(2.82893 0.0117578 -2.56441e-21)
(2.82705 0.0101008 0)
(2.80325 0.00895017 -4.8767e-21)
(2.79844 0.00716857 4.6599e-21)
(2.76389 0.00628227 -4.32139e-22)
(2.76023 0.00438834 -2.44085e-21)
(2.71429 0.00378707 6.58163e-21)
(2.96694 0.0116781 5.66748e-22)
(2.9634 0.0105346 -1.55521e-21)
(2.96738 0.0092186 1.31759e-21)
(2.95404 0.00806803 -3.12397e-21)
(2.95371 0.00661788 0)
(2.93023 0.00552141 0)
(2.92762 0.00397798 4.60742e-22)
(2.89353 0.00299015 -4.24945e-21)
(2.8914 0.00139355 -2.37942e-21)
(2.84619 0.000554915 -2.28467e-21)
(3.08114 0.00864088 0)
(3.07779 0.00761498 2.52593e-21)
(3.08247 0.00662401 -8.82039e-22)
(3.07139 0.00552845 2.80875e-21)
(3.07314 0.00444139 7.33168e-22)
(3.0539 0.00329727 -5.57035e-22)
(3.05382 0.00213038 1.02113e-21)
(3.02608 0.000979576 2.92837e-21)
(3.02548 -0.000257795 0)
(2.9891 -0.00134505 0)
(3.17211 0.00591595 0)
(3.17058 0.00509549 1.04547e-21)
(3.17544 0.00451653 -1.82978e-21)
(3.16855 0.00358426 0)
(3.17132 0.00292227 -1.41341e-21)
(3.15895 0.00188407 -5.70693e-22)
(3.1601 0.00112052 -1.55085e-21)
(3.14224 2.0853e-05 -4.18185e-22)
(3.14222 -0.000858157 2.27986e-22)
(3.11906 -0.00193352 1.7234e-22)
(3.23836 0.00309321 0)
(3.23862 0.00266537 -1.05046e-21)
(3.24254 0.00250354 -9.07146e-22)
(3.2397 0.00194996 1.20567e-21)
(3.24204 0.00168644 6.58377e-22)
(3.23622 0.00100148 6.18785e-22)
(3.23714 0.0006061 2.60144e-21)
(3.22855 -0.000170335 -1.82392e-21)
(3.22821 -0.000707522 4.12754e-22)
(3.21716 -0.00150064 0)
(3.27577 0.000664125 0)
(3.27677 0.000649183 5.0588e-22)
(3.27949 0.000742186 -4.75547e-22)
(3.27888 0.000654052 4.39509e-22)
(3.28034 0.000668809 0)
(3.27831 0.000485253 -6.21826e-22)
(3.27855 0.000398801 5.06353e-22)
(3.27534 0.000132844 4.23173e-22)
(3.27444 -5.58835e-05 0)
(3.27036 -0.000370216 0)
(1.17033 0.230544 0)
(1.10675 0.252238 -5.18209e-20)
(1.05657 0.281597 0)
(1.01609 0.319843 -1.71158e-19)
(0.980778 0.366483 6.54813e-20)
(0.948127 0.423282 2.40057e-21)
(0.915137 0.49084 5.5419e-20)
(0.864104 0.558259 -7.50726e-21)
(0.735634 0.571152 0)
(0.411756 0.354523 5.61779e-20)
(1.26601 0.232068 9.42239e-20)
(1.20312 0.26045 5.18199e-20)
(1.15254 0.288518 -4.85268e-20)
(1.11053 0.325539 5.77452e-20)
(1.07494 0.372189 -4.78971e-20)
(1.04453 0.429093 7.91115e-21)
(1.01568 0.496304 -5.6959e-20)
(0.967736 0.562229 -1.12247e-19)
(0.831816 0.5719 -2.97477e-20)
(0.466549 0.349807 -8.18103e-20)
(1.35756 0.229315 -4.09293e-20)
(1.2981 0.260227 4.22711e-20)
(1.24805 0.287763 4.85254e-20)
(1.20443 0.324012 4.94852e-20)
(1.16812 0.370271 5.02567e-20)
(1.13955 0.426429 5.0552e-20)
(1.1143 0.491932 9.44752e-21)