/*--------------------------------*- C++ -*----------------------------------*\
| =========                 |                                                 |
| \\      /  F ield         | OpenFOAM: The Open Source CFD Toolbox           |
|  \\    /   O peration     | Version:  4.1                                   |
|   \\  /    A nd           | Web:      www.OpenFOAM.org                      |
|    \\/     M anipulation  |                                                 |
\*---------------------------------------------------------------------------*/
FoamFile
{
    version     2.0;
    format      ascii;
    class       volVectorField;
    location    "6.1";
    object      U;
}
// * * * * * * * * * * * * * * * * * * * * * * * * * * * * * * * * * * * * * //

dimensions      [0 1 -1 0 0 0 0];

internalField   nonuniform List<vector> 
2000
(
(-0.0290199 0.0267125 5.07218e-20)
(0.0189679 0.0182473 0)
(0.158721 -0.00933132 8.14538e-20)
(0.367849 -0.0433904 3.65209e-20)
(0.61726 -0.0748117 -6.79464e-20)
(0.871698 -0.0997638 -9.07525e-20)
(1.10209 -0.117107 2.89207e-20)
(1.28916 -0.13177 0)
(1.43646 -0.134937 -2.18328e-20)
(1.51847 -0.155802 0)
(-0.0201131 0.0179586 -2.51478e-20)
(0.0719326 -0.00602479 2.2377e-20)
(0.276039 -0.0385804 -8.59628e-20)
(0.550467 -0.0684018 -1.14997e-19)
(0.843127 -0.0893542 -8.07185e-22)
(1.10787 -0.101553 2.9831e-20)
(1.31876 -0.107702 -2.80059e-20)
(1.47 -0.111704 -2.39789e-20)
(1.56794 -0.111111 2.18326e-20)
(1.61468 -0.122355 3.55042e-20)
(-0.00377239 0.00760769 2.70315e-20)
(0.148463 -0.0302485 -2.53193e-20)
(0.427722 -0.0609355 4.32395e-20)
(0.759675 -0.0791153 -1.47286e-21)
(1.07004 -0.0857988 3.47576e-20)
(1.31533 -0.0858912 3.09335e-20)
(1.48534 -0.0838316 2.73301e-20)
(1.58952 -0.0830033 2.39791e-20)
(1.64524 -0.0814076 1.9772e-20)
(1.6712 -0.0898072 -1.69583e-20)
(0.022154 -0.0037859 -7.06404e-22)
(0.25117 -0.0508571 -2.68892e-20)
(0.607436 -0.0707434 0)
(0.974954 -0.0721357 3.82671e-20)
(1.27269 -0.0652064 -3.71091e-20)
(1.47667 -0.0572026 0)
(1.59806 -0.0517641 0)
(1.66025 -0.049933 0)
(1.68689 -0.0493975 -1.97731e-20)
(1.69032 -0.0568682 3.20258e-20)
(0.0595694 -0.0148735 6.29781e-20)
(0.379422 -0.0627055 -2.50848e-23)
(0.80134 -0.0635624 2.49579e-20)
(1.17468 -0.0476674 2.02801e-20)
(1.43592 -0.0313754 1.80591e-20)
(1.59009 -0.0203229 1.50462e-20)
(1.66722 -0.0152866 0)
(1.69803 -0.0148983 1.03074e-20)
(1.70451 -0.0169909 -4.20331e-20)
(1.7012 -0.0246911 5.45422e-20)
(0.10964 -0.0235555 -9.83276e-20)
(0.5277 -0.0604336 1.79545e-21)
(0.991898 -0.0379578 -4.93614e-20)
(1.34395 -0.00852364 4.41484e-20)
(1.55663 0.0116724 -5.19202e-20)
(1.6631 0.0215666 1.67432e-20)
(1.70515 0.0237365 0)
(1.71448 0.0211906 -1.03082e-20)
(1.71047 0.0161996 8.51165e-21)
(1.70181 0.00838457 2.34754e-20)
(0.172305 -0.0271718 0)
(0.685667 -0.040303 0)
(1.16407 0.00465367 -2.49109e-20)
(1.47676 0.041771 2.31903e-20)
(1.6389 0.0608942 -1.63882e-20)
(1.70495 0.0666043 1.53864e-20)
(1.72152 0.0643741 2.08189e-20)
(1.71763 0.0581612 -1.96789e-20)
(1.70766 0.0501356 -1.3059e-20)
(1.69765 0.0414666 6.29505e-21)
(0.24567 -0.0229708 1.87392e-20)
(0.840633 -0.00146438 0)
(1.30862 0.0613313 -1.1632e-20)
(1.57331 0.100004 4.30894e-20)
(1.68901 0.114093 -2.67271e-20)
(1.72346 0.11363 0)
(1.72284 0.106171 0)
(1.71129 0.0958852 0)
(1.69887 0.0848593 -1.06618e-20)
(1.6882 0.0750187 1.01346e-20)
(0.325891 -0.00873056 -9.61968e-21)
(0.981121 0.0541939 -3.79002e-22)
(1.42146 0.128604 -1.33403e-20)
(1.6367 0.163482 5.005e-21)
(1.71296 0.16964 4.80747e-21)
(1.72423 0.161814 6.66565e-21)
(1.71282 0.148681 0)
(1.69746 0.134129 -1.39875e-21)
(1.68422 0.120096 -4.86818e-21)
(1.67378 0.108296 3.73062e-21)
(0.407667 0.0167275 0)
(1.09917 0.1232 -8.16236e-21)
(1.50185 0.202982 0)
(1.67084 0.229928 -2.85166e-21)
(1.71559 0.226204 -2.63307e-21)
(1.7109 0.210369 -2.92499e-21)
(1.69336 0.191335 0)
(1.67663 0.172373 1.39887e-21)
(1.66381 0.15526 9.43187e-22)
(1.65413 0.141006 2.55975e-22)
(-0.00990293 0.00924872 0)
(-0.0382105 0.0164366 -4.44474e-21)
(-0.0767734 0.0182904 0)
(-0.112343 0.0177303 -5.80381e-21)
(-0.142293 0.0159254 -1.82782e-21)
(-0.16622 0.0134199 3.3801e-21)
(-0.184039 0.0105397 -3.18321e-21)
(-0.195981 0.00755843 2.98757e-21)
(-0.2027 0.00479477 4.6582e-23)
(-0.205653 0.00264651 2.6025e-21)
(-0.0114022 0.0264926 -1.41018e-20)
(-0.038626 0.0473728 8.80692e-21)
(-0.0733848 0.0529278 -8.34643e-21)
(-0.104187 0.0513373 3.85227e-21)
(-0.128801 0.0459888 1.82095e-20)
(-0.146858 0.0384737 -6.822e-21)
(-0.158259 0.0297319 0)
(-0.163108 0.0205804 -2.97751e-21)
(-0.161675 0.0120088 -2.77753e-21)
(-0.155595 0.00529789 0)
(-0.0141198 0.0402454 9.40944e-21)
(-0.0395131 0.0728437 0)
(-0.0673541 0.0819076 2.52233e-20)
(-0.0893331 0.0794632 -3.14947e-20)
(-0.10394 0.0707665 7.42917e-21)
(-0.110958 0.0583164 0)
(-0.110336 0.0435383 0)
(-0.102137 0.0276923 0)
(-0.0860594 0.0124373 2.25936e-20)
(-0.0628834 0.000160523 -2.14728e-20)
(-0.0175484 0.0491497 0)
(-0.0408926 0.0903145 -1.85225e-20)
(-0.059845 0.102171 3.43868e-20)
(-0.0700088 0.0988758 -1.60391e-20)
(-0.07089 0.087048 1.50927e-20)
(-0.0625805 0.0698985 -4.2498e-20)
(-0.0451702 0.0491643 1.31206e-22)
(-0.0189621 0.0262254 2.51035e-20)
(0.0161649 0.00308887 2.30688e-20)
(0.0630069 -0.0156392 -3.28273e-20)
(-0.0211938 0.0530443 1.98906e-20)
(-0.042637 0.0986635 -3.80905e-20)
(-0.0517733 0.111795 -1.6384e-22)
(-0.0480681 0.107123 1.53063e-22)
(-0.0321758 0.0920795 1.52597e-20)
(-0.00463756 0.0704513 -4.33655e-20)
(0.0342112 0.0442064 0)
(0.0836172 0.0146587 -1.27974e-20)
(0.14253 -0.016331 1.19585e-20)
(0.220779 -0.0423004 -4.41604e-20)
(-0.0247317 0.0527767 -2.78695e-22)
(-0.0442839 0.0982529 3.86044e-20)
(-0.0429571 0.110248 1.77453e-20)
(-0.0234736 0.102891 1.70441e-20)
(0.0125178 0.0839908 1.54637e-20)
(0.0639779 0.0577778 1.45193e-20)
(0.130098 0.0265966 0)
(0.209723 -0.00789549 1.27962e-20)
(0.296195 -0.0450139 3.53173e-20)
(0.415978 -0.0774812 -1.18932e-20)
(-0.0280003 0.04973 7.73167e-23)
(-0.0447868 0.0905695 1.99446e-20)
(-0.0313199 0.0984065 0)
(0.00728717 0.0864631 -3.32452e-20)
(0.0686271 0.06268 3.15531e-20)
(0.150899 0.0316339 0)
(0.25179 -0.00386272 0)
(0.369444 -0.0409116 0)
(0.486109 -0.0809472 -2.4187e-20)
(0.652888 -0.11514 -4.44899e-20)
(-0.0308107 0.0452006 -2.1874e-20)
(-0.0421973 0.0774956 2.04899e-20)
(-0.012367 0.0782003 3.76833e-20)
(0.051822 0.059834 5.62197e-22)
(0.146996 0.0304844 3.20372e-20)
(0.269224 -0.0048698 2.98008e-20)
(0.412322 -0.0429079 2.777e-20)
(0.571262 -0.0793701 2.58106e-20)
(0.717765 -0.117733 2.41839e-20)
(0.919556 -0.146178 -2.20005e-20)
(-0.0326679 0.0399113 -6.88879e-20)
(-0.033469 0.0605802 -2.03865e-20)
(0.0205777 0.051953 -7.57043e-20)
(0.120624 0.0263137 -3.47562e-20)
(0.26052 -0.00782144 5.0437e-22)
(0.430701 -0.044955 -2.94367e-20)
(0.617954 -0.0812128 2.80478e-20)
(0.809398 -0.113478 -2.58076e-20)
(0.979082 -0.144272 2.35861e-20)
(1.18063 -0.16174 -4.35003e-20)
(-0.0325749 0.0338889 4.63476e-20)
(-0.0146075 0.0406874 0)
(0.0752169 0.0219621 3.86461e-20)
(0.223946 -0.0098215 -9.21176e-23)
(0.417902 -0.0454594 5.95463e-22)
(0.636496 -0.0794467 2.96922e-20)
(0.857384 -0.108155 -8.41221e-20)
(1.05956 -0.132933 0)
(1.23338 -0.150081 -2.35838e-20)
(1.38965 -0.161022 0)
(-0.206493 0.00112212 0)
(-0.206091 -0.00146829 -2.33311e-21)
(-0.202255 -0.00435813 4.58376e-21)
(-0.194774 -0.0072667 -1.97296e-21)
(-0.183659 -0.0101606 0)
(-0.168906 -0.0129922 1.86235e-21)
(-0.15056 -0.0157386 -1.87158e-21)
(-0.128699 -0.0183682 0)
(-0.103442 -0.020862 0)
(-0.0749162 -0.0232169 1.6402e-22)
(-0.0433257 -0.0253375 0)
(-0.00887345 -0.0272283 0)
(0.0282263 -0.0289321 0)
(0.0676999 -0.0304523 0)
(0.109336 -0.0318041 -8.98799e-23)
(0.152968 -0.0330296 9.03459e-23)
(0.198492 -0.0341961 0)
(0.245821 -0.035438 -3.60576e-24)
(0.293284 -0.0367441 3.62474e-24)
(0.361203 -0.0385353 0)
(-0.149707 0.000900063 0)
(-0.14654 -0.00672283 6.15809e-22)
(-0.139844 -0.0151313 0)
(-0.12966 -0.0236202 8.41771e-21)
(-0.116178 -0.0321593 -8.19351e-21)
(-0.099385 -0.0404572 5.06813e-22)
(-0.0793502 -0.0484505 -3.50614e-21)
(-0.0561593 -0.0561017 7.12858e-21)
(-0.0299669 -0.0633227 -5.63471e-21)
(-0.000767913 -0.070022 3.023e-21)
(0.0312799 -0.0761458 2.11311e-21)
(0.0657837 -0.0816603 -3.62874e-21)
(0.102539 -0.0865767 1.76563e-21)
(0.141351 -0.0909109 7.07685e-22)
(0.181996 -0.0947197 -5.45925e-22)
(0.224283 -0.0981167 8.80061e-23)
(0.268004 -0.10127 5.60841e-23)
(0.313439 -0.104532 2.74973e-23)
(0.357267 -0.107935 -2.76307e-23)
(0.421442 -0.1126 -9.68726e-24)
(-0.0459389 -0.00703161 -6.53135e-22)
(-0.037357 -0.0185972 -6.16881e-22)
(-0.0252971 -0.031655 -6.15828e-22)
(-0.0103162 -0.0450199 0)
(0.00739087 -0.0582706 -9.62656e-21)
(0.0280406 -0.0712398 7.52219e-21)
(0.0512056 -0.0838515 0)
(0.0767806 -0.095939 -8.80086e-22)
(0.104746 -0.107309 -3.8594e-22)
(0.134988 -0.117769 4.54144e-21)
(0.167351 -0.127313 -7.52676e-22)
(0.201599 -0.135869 -5.05325e-21)
(0.237508 -0.143387 -2.25237e-22)
(0.27485 -0.149893 -1.63303e-22)
(0.31339 -0.155481 -1.40623e-22)
(0.352963 -0.160305 2.26085e-22)
(0.393116 -0.164597 -2.46505e-22)
(0.434897 -0.168763 -1.9449e-22)
(0.472623 -0.172996 -2.24276e-23)
(0.529798 -0.178823 1.6239e-23)
(0.0931821 -0.0254669 -2.03354e-20)
(0.109887 -0.0395228 6.64875e-22)
(0.128228 -0.0559285 1.42364e-21)
(0.149571 -0.0730194 1.97103e-20)
(0.172837 -0.0898814 1.72935e-21)
(0.197807 -0.106473 5.28154e-22)
(0.224442 -0.122674 -1.43839e-20)
(0.252691 -0.138181 8.87427e-21)
(0.282449 -0.152735 7.05236e-21)
(0.313573 -0.166112 -5.99047e-21)
(0.345899 -0.178168 7.61724e-22)
(0.379221 -0.188799 5.70166e-21)
(0.413337 -0.197971 2.23361e-22)
(0.44803 -0.2057 1.74755e-21)
(0.483079 -0.212118 -1.21463e-21)
(0.518416 -0.217357 -7.4664e-22)
(0.553272 -0.221775 6.5081e-22)
(0.589592 -0.225576 0)
(0.619911 -0.22932 7.36478e-23)
(0.667433 -0.234195 -2.93658e-24)
(0.261889 -0.0535551 4.35262e-20)
(0.287985 -0.0693127 -1.97233e-20)
(0.312272 -0.0879363 2.11093e-20)
(0.339211 -0.107392 0)
(0.367689 -0.12676 -1.1671e-21)
(0.396841 -0.145781 -1.73151e-20)
(0.426523 -0.164257 2.59317e-22)
(0.456729 -0.181883 1.38554e-21)
(0.487373 -0.198338 1.47224e-20)
(0.518296 -0.213339 7.62024e-22)
(0.549339 -0.226682 0)
(0.580309 -0.238218 -5.7396e-22)
(0.611063 -0.247913 0)
(0.641407 -0.25575 -3.92913e-22)
(0.671202 -0.261946 0)
(0.700455 -0.266515 0)
(0.728353 -0.270094 1.64362e-22)
(0.757098 -0.272398 -1.77417e-22)
(0.779528 -0.274788 1.60302e-22)
(0.814941 -0.276859 -3.61032e-23)
(0.462688 -0.0883426 0)
(0.495493 -0.1052 -1.35929e-21)
(0.524047 -0.12526 -4.15613e-20)
(0.554286 -0.145836 4.02829e-20)
(0.585622 -0.166183 -1.21841e-21)
(0.616789 -0.1862 0)
(0.647405 -0.205622 -1.65003e-20)
(0.677434 -0.22404 3.06326e-20)
(0.70679 -0.241069 -1.6038e-20)
(0.73529 -0.256375 -8.16728e-22)
(0.762801 -0.269724 -7.22131e-22)
(0.789127 -0.280924 -6.2706e-22)
(0.814256 -0.289978 0)
(0.837974 -0.296812 2.68447e-21)
(0.860425 -0.301804 -5.95039e-21)
(0.881439 -0.30475 2.46628e-21)
(0.900874 -0.306742 -2.03345e-22)
(0.91986 -0.306737 -1.3663e-22)
(0.93432 -0.307392 4.60052e-23)
(0.955626 -0.305691 -4.48448e-23)
(0.697455 -0.124644 4.4533e-20)
(0.730837 -0.141742 0)
(0.75966 -0.162212 -1.32898e-21)
(0.789356 -0.182745 2.55429e-21)
(0.819501 -0.202959 2.43605e-21)
(0.848785 -0.222871 1.1509e-21)
(0.876714 -0.242074 1.07665e-21)
(0.903107 -0.260062 -1.42866e-20)
(0.927824 -0.276435 1.70562e-20)
(0.950646 -0.290838 1.39536e-20)
(0.97153 -0.303048 -1.15881e-20)
(0.990268 -0.312844 1.24818e-21)
(1.0071 -0.320318 -3.91712e-21)
(1.0217 -0.325326 1.12948e-21)
(1.03478 -0.328464 3.92088e-21)
(1.04561 -0.329256 2.83649e-22)
(1.05553 -0.329331 -2.82204e-22)
(1.06325 -0.326779 3.85468e-22)
(1.06998 -0.325744 5.17703e-22)
(1.07649 -0.320392 2.5177e-23)
(0.954324 -0.154967 0)
(0.98151 -0.171872 -4.3454e-20)
(1.00558 -0.191566 4.45969e-20)
(1.03014 -0.211206 -1.27997e-21)
(1.05453 -0.23072 -2.41433e-21)
(1.07761 -0.249844 -1.14982e-21)
(1.09875 -0.267996 -2.12874e-21)
(1.11758 -0.284679 0)
(1.13391 -0.299538 -9.00632e-22)
(1.14756 -0.312231 -8.08224e-22)
(1.15869 -0.322595 -7.10107e-22)
(1.16711 -0.330423 -1.23943e-21)
(1.17345 -0.335924 0)
(1.17718 -0.338892 0)
(1.17981 -0.340137 -3.55203e-22)
(1.17969 -0.338912 -2.52424e-21)
(1.18013 -0.337316 1.75065e-21)
(1.17669 -0.33266 -1.45227e-22)
(1.17656 -0.330347 -2.70806e-22)
(1.16964 -0.322298 8.02795e-23)
(1.20237 -0.172718 4.53391e-20)
(1.22055 -0.189849 0)
(1.23705 -0.208378 0)
(1.25318 -0.227189 -3.90117e-20)
(1.26835 -0.245937 3.04422e-21)
(1.28173 -0.263885 7.12055e-20)
(1.29263 -0.280496 -3.32859e-20)
(1.30059 -0.295424 0)
(1.30563 -0.308408 0)
(1.30773 -0.319157 0)
(1.30736 -0.327601 3.5851e-22)
(1.30439 -0.333569 9.08201e-22)
(1.29987 -0.33737 7.65403e-21)
(1.29303 -0.338743 -7.38676e-21)
(1.2861 -0.338629 2.53729e-21)
(1.27641 -0.336061 -2.24384e-21)
(1.26911 -0.333429 0)
(1.25667 -0.327483 6.89729e-23)
(1.25149 -0.324439 8.04736e-23)
(1.23434 -0.314738 0)
(1.40927 -0.178669 -6.97688e-22)
(1.4229 -0.19509 -4.18755e-20)
(1.43129 -0.211779 4.14395e-20)
(1.43625 -0.229111 0)
(1.43909 -0.246059 3.53833e-20)
(1.43986 -0.261915 -6.81033e-20)
(1.4382 -0.276455 3.2746e-20)
(1.43383 -0.289473 0)
(1.42709 -0.300756 1.27022e-20)
(1.41808 -0.310034 -2.3917e-20)
(1.40753 -0.317268 1.15663e-20)
(1.39522 -0.322272 -2.9365e-22)
(1.38242 -0.325371 0)
(1.36798 -0.326237 -6.27673e-21)
(1.35462 -0.325829 8.44826e-21)
(1.33871 -0.32305 -2.41629e-21)
(1.32669 -0.320348 -1.36464e-21)
(1.30867 -0.314246 9.79857e-22)
(1.30069 -0.311173 4.37512e-22)
(1.27718 -0.300992 0)
(1.58388 -0.161363 0)
(1.57942 -0.176696 0)
(1.56895 -0.19065 0)
(1.55676 -0.205312 0)
(1.54503 -0.220333 0)
(1.53354 -0.234863 0)
(1.52153 -0.248358 0)
(1.50835 -0.260533 0)
(1.49414 -0.2713 0)
(1.47876 -0.280474 0)
(1.46289 -0.288066 0)
(1.446 -0.293822 0)
(1.42939 -0.298038 0)
(1.4115 -0.300264 0)
(1.39527 -0.301404 0)
(1.3765 -0.30026 0)
(1.36222 -0.299137 0)
(1.34154 -0.294664 0)
(1.33195 -0.292746 0)
(1.3055 -0.2841 0)
(1.62976 -0.146929 0)
(1.62731 -0.163936 0)
(1.61551 -0.179576 0)
(1.6004 -0.19497 0)
(1.58566 -0.210058 0)
(1.57149 -0.224301 0)
(1.55705 -0.237301 0)
(1.54158 -0.248843 0)
(1.52526 -0.258901 0)
(1.50799 -0.267353 0)
(1.49048 -0.274264 0)
(1.47217 -0.279426 0)
(1.45436 -0.283153 0)
(1.43539 -0.285029 0)
(1.41825 -0.285925 0)
(1.39856 -0.284695 0)
(1.38356 -0.283523 0)
(1.362 -0.279186 0)
(1.35189 -0.277281 0)
(1.32458 -0.2689 0)
(1.65126 -0.133184 0)
(1.64862 -0.150828 0)
(1.63632 -0.167138 0)
(1.62031 -0.182283 0)
(1.60461 -0.196454 0)
(1.58964 -0.209583 0)
(1.57453 -0.221524 0)
(1.5585 -0.232126 0)
(1.54167 -0.241367 0)
(1.52397 -0.249147 0)
(1.50613 -0.255553 0)
(1.48756 -0.260406 0)
(1.46958 -0.264007 0)
(1.45044 -0.265949 0)
(1.43319 -0.267035 0)
(1.41335 -0.266168 0)
(1.39826 -0.265358 0)
(1.37651 -0.26159 0)
(1.36636 -0.260008 0)
(1.3388 -0.252445 0)
(1.65725 -0.120363 0)
(1.65468 -0.137851 0)
(1.64297 -0.154033 0)
(1.62741 -0.168651 0)
(1.61188 -0.181982 0)
(1.59698 -0.194219 0)
(1.582 -0.205372 0)
(1.56616 -0.21532 0)
(1.5496 -0.224024 0)
(1.5322 -0.231381 0)
(1.51471 -0.237484 0)
(1.49651 -0.242169 0)
(1.47892 -0.245721 0)
(1.46016 -0.247748 0)
(1.44327 -0.248995 0)
(1.42375 -0.248418 0)
(1.40895 -0.247886 0)
(1.38745 -0.244577 0)
(1.37747 -0.243255 0)
(1.35016 -0.236383 0)
(1.65567 -0.109261 0)
(1.65337 -0.125969 0)
(1.64273 -0.141514 0)
(1.62821 -0.15545 0)
(1.61342 -0.16801 0)
(1.59904 -0.17946 0)
(1.58458 -0.189888 0)
(1.56933 -0.199205 0)
(1.5534 -0.207374 0)
(1.53666 -0.214297 0)
(1.51983 -0.220067 0)
(1.50228 -0.224538 0)
(1.48531 -0.227983 0)
(1.46715 -0.230029 0)
(1.45082 -0.231369 0)
(1.4318 -0.231015 0)
(1.41744 -0.230702 0)
(1.39636 -0.2278 0)
(1.38665 -0.226705 0)
(1.35979 -0.220475 0)
(1.65221 -0.0996912 0)
(1.65005 -0.115246 0)
(1.6404 -0.129861 0)
(1.62703 -0.142985 0)
(1.61311 -0.154755 0)
(1.59941 -0.165427 0)
(1.58558 -0.175125 0)
(1.571 -0.183795 0)
(1.55578 -0.191415 0)
(1.53976 -0.197891 0)
(1.52363 -0.203316 0)
(1.50677 -0.207555 0)
(1.49046 -0.210867 0)
(1.47293 -0.212896 0)
(1.45717 -0.214288 0)
(1.4387 -0.21411 0)
(1.42479 -0.213972 0)
(1.40418 -0.211424 0)
(1.39476 -0.21052 0)
(1.36841 -0.204876 0)
(1.64952 -0.0911687 0)
(1.64721 -0.105445 0)
(1.63834 -0.118997 0)
(1.62598 -0.13122 0)
(1.6129 -0.142169 0)
(1.59984 -0.152062 0)
(1.58659 -0.161035 0)
(1.57261 -0.169062 0)
(1.55804 -0.176133 0)
(1.54267 -0.182162 0)
(1.52719 -0.187235 0)
(1.51095 -0.191226 0)
(1.49524 -0.194378 0)
(1.47827 -0.196354 0)
(1.46304 -0.197755 0)
(1.44507 -0.197704 0)
(1.43158 -0.197692 0)
(1.41142 -0.195445 0)
(1.40226 -0.194696 0)
(1.3764 -0.189581 0)
(1.64828 -0.0833788 0)
(1.64562 -0.096364 0)
(1.63729 -0.108793 0)
(1.62576 -0.120061 0)
(1.6134 -0.130163 0)
(1.6009 -0.139277 0)
(1.58814 -0.147534 0)
(1.57467 -0.154926 0)
(1.56063 -0.16145 0)
(1.54582 -0.167027 0)
(1.53088 -0.171739 0)
(1.51516 -0.175464 0)
(1.49995 -0.17843 0)
(1.48347 -0.180322 0)
(1.46869 -0.181694 0)
(1.45115 -0.181732 0)
(1.43802 -0.181807 0)
(1.41825 -0.17982 0)
(1.40933 -0.179196 0)
(1.38391 -0.174566 0)
(1.64838 -0.0761108 0)
(1.64525 -0.0878226 0)
(1.63727 -0.099108 0)
(1.62641 -0.109392 0)
(1.61466 -0.118632 0)
(1.60262 -0.126968 0)
(1.59026 -0.134519 0)
(1.57719 -0.141281 0)
(1.56359 -0.147259 0)
(1.54922 -0.152381 0)
(1.53472 -0.156722 0)
(1.51944 -0.160168 0)
(1.50465 -0.16293 0)
(1.48857 -0.164714 0)
(1.47416 -0.166032 0)
(1.45698 -0.166127 0)
(1.44416 -0.16626 0)
(1.42473 -0.164501 0)
(1.41601 -0.16398 0)
(1.39098 -0.159799 0)
(1.64947 -0.0691806 0)
(1.64583 -0.0796554 0)
(1.63807 -0.0898071 0)
(1.62773 -0.0991038 0)
(1.61647 -0.107479 0)
(1.60481 -0.115041 0)
(1.59277 -0.121892 0)
(1.58003 -0.128032 0)
(1.56677 -0.133466 0)
(1.55277 -0.138132 0)
(1.53863 -0.142096 0)
(1.5237 -0.145254 0)
(1.50926 -0.147798 0)
(1.4935 -0.149458 0)
(1.47941 -0.150701 0)
(1.46253 -0.150831 0)
(1.44997 -0.151001 0)
(1.43083 -0.149444 0)
(1.42228 -0.149008 0)
(1.39759 -0.145249 0)
(1.65123 -0.0624518 0)
(1.64705 -0.0717403 0)
(1.6394 -0.0807871 0)
(1.62948 -0.0891078 0)
(1.61861 -0.0966236 0)
(1.60726 -0.103418 0)
(1.59547 -0.109577 0)
(1.58299 -0.1151 0)
(1.57002 -0.119996 0)
(1.55631 -0.124205 0)
(1.54247 -0.12779 0)
(1.52784 -0.130654 0)
(1.51367 -0.132971 0)
(1.49819 -0.134494 0)
(1.48435 -0.135647 0)
(1.46773 -0.135796 0)
(1.45539 -0.135983 0)
(1.43649 -0.134612 0)
(1.42809 -0.134246 0)
(1.40369 -0.130889 0)
(1.65335 -0.0558402 0)
(1.64864 -0.0639959 0)
(1.64104 -0.0719725 0)
(1.63143 -0.0793358 0)
(1.62089 -0.086003 0)
(1.60979 -0.0920382 0)
(1.59821 -0.0975137 0)
(1.58594 -0.102428 0)
(1.5732 -0.106788 0)
(1.55973 -0.110543 0)
(1.54614 -0.113748 0)
(1.53174 -0.116313 0)
(1.51781 -0.118396 0)
(1.50256 -0.119773 0)
(1.48893 -0.120824 0)
(1.47253 -0.12098 0)
(1.46037 -0.121172 0)
(1.44168 -0.119971 0)
(1.4334 -0.119665 0)
(1.40926 -0.116694 0)
(1.65562 -0.0492902 0)
(1.65041 -0.0563629 0)
(1.64281 -0.0633046 0)
(1.63345 -0.0697324 0)
(1.62317 -0.0755651 0)
(1.61226 -0.0808519 0)
(1.60085 -0.0856528 0)
(1.58875 -0.0899653 0)
(1.57619 -0.093796 0)
(1.56292 -0.0970988 0)
(1.54953 -0.0999219 0)
(1.53533 -0.102186 0)
(1.5216 -0.104031 0)
(1.50653 -0.105255 0)
(1.49309 -0.106196 0)
(1.47687 -0.106348 0)
(1.46486 -0.106536 0)
(1.44635 -0.105495 0)
(1.43818 -0.10524 0)
(1.41426 -0.102642 0)
(1.65787 -0.0427612 0)
(1.6522 -0.0487968 0)
(1.64457 -0.054738 0)
(1.6354 -0.0602538 0)
(1.62532 -0.0652681 0)
(1.61458 -0.0698184 0)
(1.6033 -0.0739544 0)
(1.59133 -0.0776727 0)
(1.57893 -0.0809788 0)
(1.56582 -0.0838323 0)
(1.55259 -0.0862749 0)
(1.53856 -0.0882371 0)
(1.52498 -0.0898389 0)
(1.51008 -0.0909059 0)
(1.49678 -0.091731 0)
(1.48071 -0.0918733 0)
(1.46884 -0.0920479 0)
(1.45048 -0.0911586 0)
(1.4424 -0.0909482 0)
(1.41867 -0.0887135 0)
(1.65999 -0.0362262 0)
(1.65391 -0.0412664 0)
(1.64623 -0.0462396 0)
(1.6372 -0.0508663 0)
(1.62729 -0.0550783 0)
(1.61667 -0.0589045 0)
(1.60549 -0.0623852 0)
(1.59363 -0.0655167 0)
(1.58135 -0.0683035 0)
(1.56837 -0.0707109 0)
(1.55528 -0.072774 0)
(1.54138 -0.0744334 0)
(1.52793 -0.0757907 0)
(1.51316 -0.0766971 0)
(1.49998 -0.0774013 0)
(1.48404 -0.0775284 0)
(1.47227 -0.0776842 0)
(1.45404 -0.0769404 0)
(1.44603 -0.0767697 0)
(1.42246 -0.0748901 0)
(1.66186 -0.02967 0)
(1.65543 -0.0337511 0)
(1.6477 -0.0377848 0)
(1.63879 -0.041543 0)
(1.629 -0.0449681 0)
(1.61847 -0.0480819 0)
(1.60737 -0.0509164 0)
(1.5956 -0.0534683 0)
(1.58341 -0.0557408 0)
(1.57053 -0.0577054 0)
(1.55755 -0.0593905 0)
(1.54375 -0.0607472 0)
(1.53041 -0.0618586 0)
(1.51574 -0.0626025 0)
(1.50267 -0.0631821 0)
(1.48683 -0.0632905 0)
(1.47515 -0.063423 0)
(1.45702 -0.06282 0)
(1.44907 -0.0626849 0)
(1.42563 -0.0611545 0)
(1.66343 -0.0230917 0)
(1.65671 -0.0262431 0)
(1.64894 -0.02936 0)
(1.6401 -0.0322662 0)
(1.6304 -0.0349167 0)
(1.61995 -0.037328 0)
(1.60891 -0.0395242 0)
(1.5972 -0.0415028 0)
(1.58508 -0.0432655 0)
(1.57228 -0.0447905 0)
(1.55938 -0.0460991 0)
(1.54567 -0.0471539 0)
(1.53241 -0.0480183 0)
(1.51782 -0.0485986 0)
(1.50483 -0.0490509 0)
(1.48906 -0.0491384 0)
(1.47745 -0.0492437 0)
(1.45941 -0.0487787 0)
(1.45151 -0.0486758 0)
(1.42817 -0.0474903 0)
(1.66462 -0.016506 0)
(1.65769 -0.0187496 0)
(1.64988 -0.0209657 0)
(1.64109 -0.0230311 0)
(1.63147 -0.024915 0)
(1.62107 -0.0266299 0)
(1.61007 -0.0281928 0)
(1.59841 -0.029602 0)
(1.58634 -0.0308579 0)
(1.5736 -0.0319454 0)
(1.56076 -0.0328783 0)
(1.54711 -0.0336318 0)
(1.53391 -0.0342483 0)
(1.51938 -0.0346648 0)
(1.50644 -0.034987 0)
(1.49074 -0.0350533 0)
(1.47918 -0.0351268 0)
(1.4612 -0.0348 0)
(1.45333 -0.034724 0)
(1.43008 -0.0338825 0)
(1.6654 -0.00986444 0)
(1.65834 -0.0112283 0)
(1.6505 -0.0125657 0)
(1.64176 -0.0138067 0)
(1.63218 -0.0149357 0)
(1.62181 -0.0159628 0)
(1.61084 -0.0168987 0)
(1.59921 -0.0177432 0)
(1.58717 -0.0184954 0)
(1.57448 -0.0191479 0)
(1.56167 -0.0197061 0)
(1.54807 -0.0201595 0)
(1.5349 -0.0205271 0)
(1.52042 -0.0207807 0)
(1.50752 -0.0209694 0)
(1.49186 -0.0210167 0)
(1.48033 -0.021052 0)
(1.46239 -0.0208687 0)
(1.45455 -0.02081 0)
(1.43135 -0.020318 0)
(1.66572 -0.00315864 0)
(1.65862 -0.0036552 0)
(1.65079 -0.00412915 0)
(1.64208 -0.0045613 0)
(1.63253 -0.00494967 0)
(1.62218 -0.00530011 0)
(1.61123 -0.00561743 0)
(1.59961 -0.00590286 0)
(1.58759 -0.00615594 0)
(1.57492 -0.0063755 0)
(1.56213 -0.00656225 0)
(1.54854 -0.00671495 0)
(1.5354 -0.00683695 0)
(1.52094 -0.00692353 0)
(1.50805 -0.00698441 0)
(1.49242 -0.00700386 0)
(1.4809 -0.00701113 0)
(1.46299 -0.00695639 0)
(1.45515 -0.00692989 0)
(1.43198 -0.00677247 0)
(1.64664 0.124779 -2.50105e-22)
(1.6653 0.0989226 0)
(1.67916 0.0718787 2.435e-22)
(1.68913 0.043767 7.69919e-21)
(1.69411 0.014841 -2.41298e-20)
(1.69597 -0.0144308 0)
(1.69342 -0.0444202 -3.08471e-20)
(1.67813 -0.0744029 0)
(1.67369 -0.104265 -3.71304e-20)
(1.58212 -0.140426 5.69089e-22)
(1.64152 0.110594 -1.94333e-22)
(1.65824 0.0879409 -1.05634e-22)
(1.67149 0.0640652 1.05844e-22)
(1.67949 0.0396019 -2.01591e-21)
(1.68665 0.0138532 7.28997e-21)
(1.68412 -0.0120071 6.1551e-22)
(1.6922 -0.0384994 0)
(1.66825 -0.0670779 2.5229e-20)
(1.69019 -0.0903782 0)
(1.62509 -0.127835 3.07293e-20)
(1.6402 0.0969699 5.75876e-22)
(1.6537 0.0767559 0)
(1.66672 0.0554389 1.22047e-22)
(1.67084 0.0334798 -1.97257e-21)
(1.68106 0.010972 -7.91406e-21)
(1.67272 -0.0129622 0)
(1.68752 -0.0346593 -1.75389e-20)
(1.66111 -0.0628302 -2.57871e-20)
(1.68402 -0.0803143 0)
(1.64649 -0.11529 -3.04172e-20)
(1.64124 0.0851181 -3.44103e-22)
(1.65174 0.06679 8.79302e-22)
(1.66467 0.0481457 0)
(1.66542 0.0279779 -4.13412e-21)
(1.67701 0.00902134 -3.70255e-22)
(1.66626 -0.0137331 8.36878e-22)
(1.68061 -0.0310384 1.71497e-20)
(1.65938 -0.0579918 5.55093e-22)
(1.67313 -0.072546 1.96432e-20)
(1.65301 -0.103309 0)
(1.6436 0.0746934 0)
(1.65205 0.0579914 -8.77872e-22)
(1.66423 0.0419629 -4.92302e-22)
(1.66359 0.0232647 -1.87063e-22)
(1.67392 0.00742483 1.64306e-22)
(1.66443 -0.0139504 3.63982e-22)
(1.67391 -0.0284376 1.0692e-20)
(1.65943 -0.0529692 9.7131e-22)
(1.66468 -0.0665681 -3.78138e-21)
(1.65208 -0.0931698 -1.85238e-20)
(1.6467 0.0654383 8.33478e-22)
(1.65407 0.0502268 8.35805e-23)
(1.66468 0.0363891 -7.18335e-22)
(1.66431 0.0191867 1.88655e-23)
(1.67186 0.00553758 1.4562e-21)
(1.66503 -0.0139764 0)
(1.66937 -0.0270477 -1.18305e-20)
(1.65937 -0.0486504 3.51745e-22)
(1.65982 -0.061798 -2.92479e-20)
(1.64936 -0.0848478 3.35691e-20)
(1.65028 0.0571349 -8.37579e-22)
(1.65718 0.043399 -1.33852e-21)
(1.66588 0.0312403 1.09311e-21)
(1.66634 0.015697 -1.40303e-21)
(1.67115 0.00347119 -1.21366e-21)
(1.66649 -0.0138946 1.74845e-21)
(1.66747 -0.0261455 -2.64713e-22)
(1.65947 -0.0449633 5.9668e-22)
(1.65789 -0.0574638 1.26997e-20)
(1.64761 -0.077654 -1.5079e-20)
(1.65424 0.0496598 0)
(1.66083 0.0374026 3.0721e-21)
(1.66781 0.0265429 -2.4159e-22)
(1.66891 0.012736 2.69801e-22)
(1.6718 0.00156236 -1.08962e-21)
(1.6683 -0.0136788 -2.25085e-21)
(1.66765 -0.0251464 1.74329e-21)
(1.66031 -0.0415943 0)
(1.65794 -0.0532325 0)
(1.64742 -0.0711273 0)
(1.65847 0.0429494 0)
(1.66469 0.0321223 -3.19266e-21)
(1.67037 0.0223555 -1.80084e-22)
(1.6717 0.0102159 1.23152e-21)
(1.67346 -3.70764e-06 8.45167e-22)
(1.6704 -0.0133427 6.58053e-22)
(1.66906 -0.0239244 -2.01052e-21)
(1.66193 -0.0384157 1.15926e-22)
(1.65914 -0.0491047 0)
(1.64858 -0.0650606 -3.68615e-21)
(1.66284 0.036949 1.35314e-22)
(1.66857 0.0274537 1.87001e-21)
(1.67333 0.0186902 2.64759e-21)
(1.6746 0.00806433 -4.43305e-23)
(1.67572 -0.00120047 1.9076e-22)
(1.67278 -0.0128983 -1.3147e-21)
(1.6711 -0.022526 6.61963e-23)
(1.66415 -0.0353538 5.41032e-23)
(1.66101 -0.0450624 0)
(1.65068 -0.0592909 6.31728e-21)
(1.66717 0.0315954 0)
(1.67239 0.0233156 2.15516e-21)
(1.67647 0.0155158 3.49918e-22)
(1.67756 0.00624113 0)
(1.67826 -0.00205859 0)
(1.67537 -0.0123214 1.22709e-21)
(1.67342 -0.0209685 -3.42382e-23)
(1.66675 -0.0323103 5.96773e-23)
(1.66327 -0.0410293 -2.65374e-24)
(1.65339 -0.0536751 -2.69648e-21)
(1.67133 0.0268167 0)
(1.67605 0.0196447 -4.22285e-21)
(1.6796 0.0127815 -3.82219e-21)
(1.6805 0.00472559 4.81951e-22)
(1.68087 -0.00261216 -2.85634e-22)
(1.67806 -0.0115779 -1.18181e-22)
(1.67587 -0.0192439 1.65766e-22)
(1.66953 -0.0292115 5.75517e-22)
(1.66573 -0.0369528 -4.06747e-23)
(1.65639 -0.0481232 3.02113e-23)
(1.67522 0.0225378 0)
(1.6795 0.0163835 2.31976e-21)
(1.6826 0.0104306 -2.14429e-22)
(1.68333 0.00349737 2.12653e-22)
(1.68343 -0.00289372 0)
(1.68071 -0.0106539 0)
(1.6783 -0.0173545 0)
(1.67233 -0.0260282 -6.11066e-22)
(1.66822 -0.0328139 3.98737e-22)
(1.65946 -0.0425845 0)
(1.67875 0.0187335 0)
(1.68265 0.0135048 1.56854e-21)
(1.68538 0.0084235 1.82308e-21)
(1.68599 0.0025375 2.05268e-21)
(1.68584 -0.00293274 -3.58758e-22)
(1.68324 -0.0095542 1.76925e-21)
(1.68062 -0.0153125 -1.19671e-21)
(1.67502 -0.0227519 0)
(1.67062 -0.0286032 5.51468e-22)
(1.66243 -0.0370245 -2.15375e-22)
(1.68185 0.0152492 -3.94319e-22)
(1.68544 0.0109242 -1.28821e-21)
(1.68786 0.0066975 -2.3622e-21)
(1.68839 0.00180813 -1.4508e-21)
(1.68803 -0.00276558 0)
(1.68555 -0.00829675 -2.19092e-21)
(1.68276 -0.0131346 1.76671e-21)
(1.67749 -0.0193822 -1.55244e-22)
(1.67284 -0.0243166 -2.39755e-22)
(1.66517 -0.0314217 5.33667e-22)
(1.68453 0.0120303 3.96345e-22)
(1.68786 0.00859416 -1.06384e-21)
(1.69002 0.00520473 8.40534e-22)
(1.69047 0.00127337 -1.88707e-21)
(1.68994 -0.00242588 0)
(1.68758 -0.00690278 0)
(1.68464 -0.0108389 1.84004e-22)
(1.67967 -0.0159244 -1.59492e-21)
(1.6748 -0.0199567 -5.63491e-22)
(1.66757 -0.0257662 -3.26942e-22)
(1.68673 0.00910772 0)
(1.68985 0.00649965 1.70612e-21)
(1.69179 0.00391131 -5.57794e-22)
(1.6922 0.000900806 1.71899e-21)
(1.69154 -0.00194673 4.31826e-22)
(1.68926 -0.0053991 -2.72183e-22)
(1.68622 -0.00845034 4.70125e-22)
(1.68148 -0.0123961 1.08448e-21)
(1.67644 -0.0155385 0)
(1.66957 -0.0200635 0)
(1.68842 0.00638801 0)
(1.69138 0.00457851 7.1964e-22)
(1.69316 0.00277152 -1.19148e-21)
(1.69352 0.000656694 0)
(1.69276 -0.00135736 -8.19383e-22)
(1.69056 -0.00381017 -2.87719e-22)
(1.68744 -0.00599258 -7.33318e-22)
(1.68288 -0.00881887 -1.60865e-22)
(1.6777 -0.0110837 1.00294e-22)
(1.67109 -0.0143357 5.39822e-23)
(1.68955 0.00383316 0)
(1.69241 0.00280503 -7.23101e-22)
(1.69407 0.00177605 -5.91285e-22)
(1.69441 0.000550169 7.45697e-22)
(1.69358 -0.000632345 3.62653e-22)
(1.69143 -0.00209542 3.34483e-22)
(1.68825 -0.00341377 1.24137e-21)
(1.68381 -0.00513383 -7.89722e-22)
(1.67854 -0.00653106 1.65292e-22)
(1.67209 -0.00852706 0)
(1.69011 0.00120563 0)
(1.69291 0.000974928 3.42936e-22)
(1.69452 0.000733718 -3.16154e-22)
(1.69484 0.000405835 2.83764e-22)
(1.69398 6.79272e-05 0)
(1.69186 -0.000390373 -3.36165e-22)
(1.68864 -0.00082566 2.36446e-22)
(1.68425 -0.00141918 1.67239e-22)
(1.67891 -0.00192648 0)
(1.67253 -0.00264903 0)
(1.16499 0.314551 0)
(1.13876 0.345818 -4.31906e-20)
(1.12001 0.385279 0)
(1.10554 0.434235 -1.41315e-19)
(1.09261 0.492556 5.61164e-20)
(1.07991 0.562293 2.72165e-21)
(1.06508 0.644332 3.82094e-20)
(1.02903 0.726621 -9.99997e-21)
(0.898575 0.742485 0)
(0.517743 0.463982 2.69926e-20)
(1.22614 0.315361 7.75837e-20)
(1.20441 0.353212 4.31889e-20)
(1.19271 0.391636 -3.82362e-20)
(1.18446 0.439298 4.77001e-20)
(1.17775 0.497012 -3.45741e-20)
(1.17261 0.565927 9.64911e-21)
(1.16635 0.646212 -4.16271e-20)
(1.13651 0.723997 -7.45922e-20)
(0.999239 0.731303 -1.9541e-20)
(0.572537 0.44553 -3.7916e-20)
(1.28686 0.310666 -3.18761e-20)
(1.27181 0.349756 3.23017e-20)
(1.26551 0.387443 3.82345e-20)
(1.26198 0.434379 3.80874e-20)
(1.26092 0.491327 3.73825e-20)
(1.26304 0.558646 3.56664e-20)
(1.26452 0.635649 1.12078e-20)
(1.23883 0.706283 2.60667e-20)
(1.09134 0.703063 2.08937e-21)
(0.61716 0.414615 -2.23038e-21)
(1.34894 0.302409 6.39475e-20)
(1.33926 0.34057 -3.23e-20)
(1.33676 0.376652 0)
(1.33704 0.42185 0)
(1.3411 0.476756 0)
(1.34979 0.541153 1.78256e-20)
(1.35755 0.61318 -8.15875e-21)
(1.333 0.67416 0)
(1.17123 0.65908 -5.64164e-21)
(0.648051 0.372933 1.4408e-20)
(1.40871 0.290077 -8.9128e-21)
(1.40352 0.326104 3.83502e-20)
(1.40429 0.360148 0)
(1.40814 0.402816 0)
(1.41693 0.454437 6.41166e-21)
(1.43123 0.514544 3.78111e-21)
(1.44325 0.580288 1.02501e-20)
(1.41641 0.628826 -5.78521e-21)
(1.23346 0.600516 -2.62244e-20)
(0.663121 0.323666 -5.64824e-21)