/*--------------------------------*- C++ -*----------------------------------*\
| =========                 |                                                 |
| \\      /  F ield         | OpenFOAM: The Open Source CFD Toolbox           |
|  \\    /   O peration     | Version:  4.1                                   |
|   \\  /    A nd           | Web:      www.OpenFOAM.org                      |
|    \\/     M anipulation  |                                                 |
\*---------------------------------------------------------------------------*/
FoamFile
{
    version     2.0;
    format      ascii;
    class       surfaceScalarField;
    location    "3.8";
    object      phi;
}
// * * * * * * * * * * * * * * * * * * * * * * * * * * * * * * * * * * * * * //

dimensions      [0 3 -1 0 0 0 0];

internalField   nonuniform List<scalar> 
3890
(
0.000793295
-0.000810422
1.71273e-05
0.00324124
-0.0066057
0.00415775
0.00723122
-0.014505
0.010515
0.0123744
-0.0229052
0.017762
0.018113
-0.0305966
0.024858
0.0239046
-0.036873
0.0310814
0.0293486
-0.0415085
0.0360644
0.0342154
-0.0446057
0.039739
0.0384011
-0.046404
0.0422183
-0.0472944
0.0437441
0.0419514
0.000989567
-0.00179999
0.00390217
-0.0095183
0.00843617
-0.019039
0.0139679
-0.0284369
0.0197838
-0.0364126
0.025318
-0.0424071
0.0302468
-0.0464373
0.034468
-0.0488269
0.0380532
-0.0499892
-0.0503925
0.0411513
0.00120686
-0.00300685
0.00457162
-0.0128831
0.00952796
-0.0239953
0.0152064
-0.0341153
0.0208042
-0.0420105
0.0258145
-0.0474174
0.0300403
-0.0506631
0.033502
-0.0522886
0.036335
-0.0528222
-0.0527229
0.0386654
0.00143649
-0.00444334
0.00520115
-0.0166477
0.0103996
-0.0291937
0.0159574
-0.0396731
0.0210785
-0.0471316
0.0253883
-0.0517272
0.0288411
-0.0541159
0.0315707
-0.0550182
0.033772
-0.0550235
-0.0545674
0.0356165
0.00166475
-0.00610809
0.00573247
-0.0207154
0.0109549
-0.0344162
0.0161424
-0.0448606
0.0206008
-0.05159
0.0241266
-0.055253
0.0268136
-0.0568029
0.028872
-0.0570766
0.0305192
-0.0566708
-0.0559609
0.0319127
0.00187415
-0.00798224
0.00610823
-0.0249495
0.0111305
-0.0394384
0.0157496
-0.0494797
0.0194422
-0.0552826
0.0221788
-0.0579896
0.0241606
-0.0587847
0.0256371
-0.0585531
0.0268183
-0.0578519
-0.0569802
0.0278376
0.00204506
-0.0100273
0.00628272
-0.0291872
0.0109046
-0.0440603
0.014824
-0.0533991
0.0177185
-0.0581772
0.019708
-0.0599791
0.0210596
-0.0601363
0.0220282
-0.0595217
0.0227975
-0.0586213
-0.0576561
0.0234734
0.00215809
-0.0121854
0.00622827
-0.0332574
0.0102949
-0.0481269
0.0134473
-0.0565515
0.0155614
-0.0602912
0.0168682
-0.0612859
0.0176635
-0.0609316
0.0181834
-0.0600416
0.0185781
-0.0590159
-0.0580035
0.0189255
0.00219775
-0.0143831
0.00594415
-0.0370038
0.00934918
-0.0515319
0.0117171
-0.0589195
0.0130962
-0.0616703
0.0137883
-0.061978
0.014088
-0.0612313
0.0141993
-0.0601529
0.014237
-0.0590536
-0.0580223
0.0142558
0.00215512
-0.0165383
0.00545007
-0.0402987
0.00813192
-0.0542138
0.00973162
-0.0605192
0.0104324
-0.0623711
0.0105707
-0.0621163
0.0104201
-0.0610807
0.0101493
-0.0598821
0.00984267
-0.058747
0.0095332
-0.0577129
-0.000515682
0.000515682
-0.00126272
0.00074704
-0.00185725
0.00059453
-0.00209119
0.000233933
-0.00184573
-0.000245455
-0.00105208
-0.000793648
0.000323801
-0.00137588
0.00228056
-0.00195675
0.00478208
-0.00250152
-0.00294353
0.00772561
-0.00046204
0.000977722
-0.00110433
0.00138933
-0.00156392
0.00105412
-0.00163701
0.000307026
-0.00121028
-0.000672186
-0.000217018
-0.00178691
0.00136493
-0.00295783
0.00353575
-0.00412758
0.00625677
-0.00522254
-0.00611844
0.00943168
-0.000361973
0.00133969
-0.000809717
0.00183707
-0.0010118
0.00125621
-0.000775786
7.10097e-05
8.07907e-07
-0.00144878
0.00137362
-0.00315972
0.00336008
-0.00494429
0.00594073
-0.00670822
0.00907233
-0.00835414
-0.00971722
0.0126711
-0.000231566
0.00157126
-0.000414083
0.00201959
-0.000255927
0.00109805
0.000409576
-0.000594493
0.00168455
-0.00272375
0.00360255
-0.00507772
0.00615572
-0.00749747
0.00930225
-0.00985475
0.0129803
-0.0120322
-0.0138545
0.0171177
-8.77909e-05
0.00165905
4.08153e-05
0.00189098
0.000632662
0.000506203
0.0018354
-0.00179723
0.0037254
-0.00461375
0.00631168
-0.007664
0.00955082
-0.0107366
0.0133617
-0.0136656
0.0176474
-0.0163179
-0.0185441
0.0223369
5.74364e-05
0.00160161
0.000523146
0.00142527
0.00160279
-0.000573438
0.00341836
-0.0036128
0.00601072
-0.00720611
0.00934585
-0.0109991
0.0133277
-0.0147185
0.0178213
-0.0181592
0.0226827
-0.0211793
-0.0236851
0.0278237
0.000196289
0.00140533
0.0010152
0.000606361
0.00262488
-0.00218312
0.00510905
-0.00609697
0.008456
-0.0105531
0.0125636
-0.0151068
0.0172634
-0.0194183
0.0223564
-0.0232522
0.027653
-0.0264759
-0.0290653
0.0330332
0.000331323
0.001074
0.00151871
-0.000581028
0.00369371
-0.00435812
0.0068829
-0.00928617
0.0109914
-0.0146615
0.0158199
-0.0199353
0.021113
-0.0247113
0.0266125
-0.0287517
0.0320998
-0.0319633
-0.0343867
0.0374212
0.000469796
0.000604206
0.00204806
-0.0021593
0.00481913
-0.00712919
0.00872047
-0.0131875
0.0135337
-0.0194748
0.0189372
-0.0253388
0.0245901
-0.0303642
0.0302044
-0.0343659
0.035573
-0.0373319
-0.0393411
0.0405274
0.000621334
0.00261979
0.00600561
0.0105801
0.0159633
0.0217059
0.0274062
0.0327792
0.0376656
0.0420686
0.0103061
-0.00258054
0.0129385
-0.00263237
0.015609
-0.00267042
0.01829
-0.00268101
0.0209501
-0.00266014
0.023561
-0.00261089
0.0260977
-0.00253669
0.0285386
-0.00244096
0.0308664
-0.00232773
0.0330674
-0.00220098
0.035132
-0.00206462
0.0370542
-0.00192221
0.0388312
-0.00177698
0.0404629
-0.00163175
0.0419519
-0.001489
0.0433026
-0.00135072
0.0445217
-0.00121909
0.0456152
-0.00109342
0.0465993
-0.000984134
-0.000853557
0.0119435
-0.00509241
0.0144966
-0.00518544
0.0170831
-0.00525689
0.0196765
-0.00527442
0.0222461
-0.00522975
0.0247652
-0.00512997
0.0272108
-0.00498229
0.0295628
-0.00479297
0.0318047
-0.00456965
0.0339239
-0.00432016
0.0359114
-0.00405213
0.0377617
-0.00377254
0.0394724
-0.00348767
0.0410437
-0.00320302
0.0424781
-0.00292339
0.0437799
-0.00265256
0.0449559
-0.00239511
0.046011
-0.0021485
0.0469632
-0.00193633
-0.0016763
0.0150461
-0.00746736
0.0174426
-0.00758193
0.0198646
-0.00767892
0.0222881
-0.00769797
0.0246836
-0.00762526
0.0270272
-0.00747349
0.0292993
-0.00725447
0.0314826
-0.00697618
0.0335621
-0.00664922
0.0355269
-0.00628494
0.0373692
-0.00589445
0.0390846
-0.00548789
0.0406711
-0.00507425
0.0421295
-0.00466138
0.0434623
-0.00425619
0.0446736
-0.00386388
0.04577
-0.00349151
0.0467554
-0.00313382
0.0476477
-0.00282867
-0.00244919
0.0192863
-0.00963604
0.0214553
-0.00975088
0.0236414
-0.00986507
0.0258241
-0.00988061
0.0279755
-0.00977666
0.030075
-0.00957301
0.0321076
-0.0092871
0.0340591
-0.00892762
0.0359168
-0.00850693
0.0376715
-0.0080397
0.0393173
-0.00754023
0.0408509
-0.00702144
0.0422712
-0.00649462
0.0435794
-0.00596953
0.044778
-0.00545482
0.0458707
-0.00495663
0.0468638
-0.0044846
0.0477595
-0.00402951
0.0485761
-0.00364522
-0.00315872
0.0242254
-0.0115245
0.0261032
-0.0116287
0.0279948
-0.0117567
0.0298815
-0.0117673
0.0317379
-0.0116331
0.0335466
-0.0113817
0.0352962
-0.0110367
0.0369759
-0.0106073
0.0385754
-0.0101064
0.0400875
-0.00955178
0.0415079
-0.00896073
0.042835
-0.00834845
0.0440684
-0.00772805
0.0452095
-0.00711061
0.0462608
-0.00650611
0.0472251
-0.00592093
0.048108
-0.00536757
0.0489099
-0.00483134
0.0496486
-0.00438397
-0.00380532
0.0293614
-0.0130622
0.0308983
-0.0131655
0.0324554
-0.0133138
0.0340126
-0.0133246
0.0355473
-0.0131677
0.0370442
-0.0128787
0.0384937
-0.0124861
0.0398877
-0.0120014
0.0412183
-0.0114371
0.0424808
-0.0108142
0.0436726
-0.0101526
0.0447933
-0.00946909
0.0458432
-0.00877794
0.0468234
-0.00809084
0.0477359
-0.00741861
0.0485822
-0.00676722
0.049367
-0.00615234
0.0500878
-0.00555222
0.0507622
-0.00505836
-0.00440332
0.0341761
-0.0142051
0.0353521
-0.0143415
0.0365638
-0.0145256
0.0377865
-0.0145472
0.039
-0.0143812
0.0401902
-0.0140689
0.0413476
-0.0136435
0.0424673
-0.0131211
0.0435448
-0.0125145
0.0445771
-0.0118465
0.0455633
-0.0111388
0.0465033
-0.0104091
0.0473974
-0.00967206
0.0482459
-0.00893926
0.0490493
-0.00822202
0.0498072
-0.00752517
0.050523
-0.00686813
0.0511914
-0.00622064
0.0518287
-0.00569561
-0.00497919
0.0381801
-0.0149641
0.0390232
-0.0151846
0.0399148
-0.0154172
0.0408256
-0.015458
0.0417433
-0.0152989
0.0426557
-0.0149812
0.0435537
-0.0145415
0.0444372
-0.0140046
0.0453055
-0.0133828
0.046156
-0.0126971
0.0469874
-0.0119702
0.0477984
-0.0112201
0.0485877
-0.0104614
0.0493537
-0.00970522
0.0500951
-0.00896344
0.0508093
-0.00823936
0.0514981
-0.00755693
0.0521537
-0.00687621
0.0527905
-0.00633244
-0.00556671
0.0409947
-0.0154313
0.0415921
-0.015782
0.0422102
-0.0160352
0.0428494
-0.0160972
0.0435155
-0.015965
0.0442029
-0.0156686
0.044906
-0.0152445
0.0456231
-0.0147218
0.0463542
-0.0141139
0.0470964
-0.0134392
0.0478458
-0.0127196
0.0485981
-0.0119724
0.0493492
-0.0112124
0.0500944
-0.0104505
0.0508306
-0.0096996
0.0515528
-0.00896159
0.0522619
-0.00826598
0.0529485
-0.00756288
0.0536264
-0.00701027
-0.00620625
0.0426606
-0.0160233
0.0430748
-0.0161962
0.0434532
-0.0164136
0.0438648
-0.0165088
0.0443299
-0.0164302
0.0448519
-0.0161906
0.0454279
-0.0158206
0.0460501
-0.0153439
0.0467153
-0.0147792
0.04742
-0.0141439
0.0481566
-0.0134562
0.0489168
-0.0127326
0.0496924
-0.0119881
0.0504758
-0.0112339
0.0512611
-0.0104849
0.0520413
-0.00974177
0.0528155
-0.00904018
0.0535742
-0.00832154
0.0543302
-0.00776632
-0.00694596
0.0665614
-0.0142639
-0.0683209
0.0650976
-0.0147323
0.0636674
-0.0149835
0.0622605
-0.0151019
0.0609096
-0.0150793
0.0596339
-0.0149149
0.0584405
-0.0146272
0.0573353
-0.0142387
0.056324
-0.0137679
0.0554105
-0.0132304
0.0545957
-0.0126414
0.0538779
-0.0120148
0.0532534
-0.0113636
0.0527168
-0.0106973
0.0522621
-0.0100302
0.0518817
-0.00936135
0.0515686
-0.00872708
0.0513145
-0.00806746
0.0511118
-0.00756362
-0.00680208
0.0679911
-0.0126729
-0.0695821
0.0664632
-0.0132044
0.065005
-0.0135253
0.0635921
-0.013689
0.0622327
-0.0137198
0.0609423
-0.0136244
0.0597304
-0.0134154
0.0586022
-0.0131104
0.0575609
-0.0127266
0.0566092
-0.0122787
0.0557479
-0.0117801
0.054976
-0.0112428
0.0542908
-0.0106785
0.0536888
-0.0100953
0.053165
-0.00950646
0.0527141
-0.00891037
0.0523293
-0.00834233
0.0520056
-0.00774374
0.0517299
-0.00728794
-0.00658005
0.0686293
-0.0111763
-0.070126
0.0671557
-0.0117308
0.0657357
-0.0121053
0.0643642
-0.0123175
0.0630424
-0.012398
0.0617811
-0.0123632
0.06059
-0.0122243
0.0594746
-0.0119951
0.0584384
-0.0116904
0.0574836
-0.0113238
0.0566108
-0.0109074
0.0558195
-0.0104516
0.0551078
-0.0099667
0.0544726
-0.0094601
0.0539103
-0.00894409
0.0534163
-0.00841642
0.0529849
-0.00791088
0.0526121
-0.00737094
0.0522844
-0.00696025
-0.00630855
0.0687114
-0.00980607
-0.0700816
0.0673536
-0.0103729
0.0660259
-0.0107776
0.064735
-0.0110266
0.0634856
-0.0111487
0.0622866
-0.0111641
0.0611466
-0.0110843
0.0600718
-0.0109203
0.059066
-0.0106846
0.0581316
-0.0103894
0.0572696
-0.0100454
0.0564802
-0.00966208
0.055762
-0.00924857
0.0551132
-0.00881129
0.0545309
-0.00836174
0.0540117
-0.00789721
0.0535504
-0.00744965
0.0531446
-0.00696509
0.0527814
-0.0065971
-0.00600087
0.06846
-0.00859336
-0.0696728
0.0672396
-0.00915253
0.0660289
-0.00956688
0.0648401
-0.00983775
0.0636819
-0.00999055
0.0625629
-0.0100451
0.0614912
-0.0100125
0.060473
-0.00990213
0.0595128
-0.00972442
0.0586134
-0.00948997
0.0577765
-0.00920849
0.0570026
-0.00888825
0.0562916
-0.00853752
0.0556422
-0.00816193
0.0550525
-0.00777207
0.0545203
-0.00736492
0.0540411
-0.00697046
0.0536135
-0.00653757
0.0532258
-0.00620934
-0.00566633
0.0680446
-0.00753456
-0.0691034
0.0669598
-0.00806773
0.0658692
-0.0084762
0.0647874
-0.00875604
0.0637253
-0.0089284
0.0626914
-0.00901125
0.0616937
-0.00901479
0.0607386
-0.00894699
0.0598308
-0.00881666
0.0589738
-0.00863292
0.0581696
-0.00840434
0.0574196
-0.00813824
0.0567241
-0.00784202
0.0560828
-0.0075206
0.0554944
-0.00718372
0.0549576
-0.00682814
0.0544689
-0.00648176
0.0540279
-0.00609653
0.0536235
-0.00580491
-0.00531265
0.0675729
-0.00660914
-0.0684983
0.0666111
-0.00710596
0.0656324
-0.00749747
0.0646522
-0.00777591
0.063682
-0.00795816
0.0627305
-0.00805977
0.0618055
-0.00808975
0.0609133
-0.00805485
0.0600591
-0.00796246
0.0592466
-0.00782037
0.0584783
-0.00763606
0.057756
-0.00741596
0.0570807
-0.00716667
0.0564525
-0.00689247
0.0558711
-0.00660225
0.0553356
-0.00629266
0.0548434
-0.0059895
0.0543947
-0.00564792
0.0539796
-0.0053898
-0.00494563
0.0671047
-0.00579515
-0.0679187
0.0662494
-0.00625061
0.0653697
-0.00661779
0.0644808
-0.00688705
0.0635941
-0.00707143
0.0627183
-0.00718395
0.0618608
-0.00723229
0.0610281
-0.00722211
0.0602252
-0.00715959
0.0594562
-0.00705132
0.0587239
-0.00690376
0.0580304
-0.0067225
0.0573772
-0.00651343
0.0567649
-0.00628023
0.0561936
-0.00603096
0.0556632
-0.00576226
0.0551715
-0.0054978
0.0547197
-0.00519606
0.0542983
-0.00496846
-0.00456964
0.0666682
-0.00507285
-0.0673905
0.0659025
-0.00548494
0.0651081
-0.00582339
0.064299
-0.00607798
0.0634861
-0.00625854
0.0626779
-0.00637569
0.0618814
-0.00643582
0.0611029
-0.00644362
0.0603475
-0.00640419
0.0596193
-0.00632309
0.0589214
-0.00620583
0.0582561
-0.00605728
0.0576253
-0.00588258
0.05703
-0.00568493
0.0564706
-0.00547157
0.0559475
-0.00523919
0.0554591
-0.00500937
0.055007
-0.00474399
0.0545827
-0.00454415
-0.00418804
0.0662728
-0.0044255
-0.0669202
0.0655821
-0.00479418
0.0648603
-0.0051016
0.0641201
-0.00533777
0.0633715
-0.00551002
0.0626227
-0.00562686
0.0618804
-0.0056935
0.0611505
-0.00571373
0.0604381
-0.00569178
0.0597473
-0.00563226
0.0590813
-0.00553987
0.0584428
-0.00541876
0.0578336
-0.00527344
0.0572553
-0.00510662
0.0567085
-0.00492478
0.056194
-0.00472472
0.0557106
-0.00452594
0.0552604
-0.00429378
0.0548355
-0.00411923
-0.00380333
0.0659203
-0.00383964
-0.0665061
0.065292
-0.00416589
0.0646316
-0.00444128
0.0639504
-0.00465654
0.0632576
-0.00481716
0.0625605
-0.00492984
0.0618658
-0.00499874
0.061179
-0.00502692
0.060505
-0.00501779
0.0598479
-0.0049752
0.0592111
-0.00490308
0.0585973
-0.00480495
0.0580086
-0.00468472
0.0574467
-0.00454469
0.0569125
-0.00439057
0.0564071
-0.00421936
0.0559296
-0.00404848
0.0554826
-0.00384678
0.0550588
-0.00369535
-0.00341738
0.065609
-0.00330443
-0.0661443
0.0650328
-0.00358964
0.0644243
-0.00383277
0.0637933
-0.00402558
0.0631483
-0.00417212
0.0624961
-0.00427765
0.0618428
-0.00434544
0.0611938
-0.0043779
0.0605538
-0.00437778
0.0599268
-0.00434822
0.0593162
-0.00429251
0.0587249
-0.00421361
0.058155
-0.00411485
0.0576085
-0.00399815
0.0570864
-0.00386851
0.0565902
-0.00372316
0.0561192
-0.00357747
0.0556762
-0.00340383
0.0552545
-0.00327362
-0.00303156
0.0653371
-0.0028109
-0.0658306
0.0648041
-0.00305659
0.064239
-0.00326773
0.0636506
-0.00343714
0.0630463
-0.00356784
0.0624326
-0.00366394
0.0618151
-0.00372794
0.0611989
-0.00376171
0.0605886
-0.00376746
0.0599881
-0.00374773
0.0594008
-0.00370522
0.0588296
-0.00364238
0.0582767
-0.00356202
0.0577443
-0.00346573
0.0572336
-0.00335782
0.0567462
-0.00323578
0.0562818
-0.00311299
0.0558433
-0.00296532
0.0554243
-0.00285471
-0.00264676
0.0651025
-0.00235148
-0.065562
0.0646051
-0.00255917
0.0640762
-0.0027388
0.0635234
-0.00288431
0.0629534
-0.00299793
0.0623723
-0.00308284
0.0617854
-0.00314094
0.0611973
-0.00317366
0.0606126
-0.00318274
0.0600351
-0.0031702
0.0594681
-0.00313823
0.0589145
-0.00308883
0.0583768
-0.00302432
0.0578571
-0.00294601
0.0573568
-0.00285751
0.0568776
-0.00275665
0.0564195
-0.00265479
0.0559855
-0.00253134
0.0555697
-0.00243897
-0.00226358
0.0649037
-0.00191965
-0.0653356
0.0644353
-0.00209076
0.063936
-0.00223947
0.0634125
-0.00236084
0.0628711
-0.00245652
0.0623172
-0.00252893
0.0617558
-0.00257949
0.0611914
-0.0026093
0.0606283
-0.00261967
0.0600703
-0.0026122
0.0595207
-0.00258861
0.0589824
-0.00255051
0.0584578
-0.00249976
0.0579492
-0.0024374
0.0574581
-0.00236642
0.0569864
-0.00228495
0.0565341
-0.00220243
0.0561045
-0.00210174
0.0556919
-0.00202643
-0.0018823
0.0647393
-0.00150974
-0.0651493
0.0642941
-0.0016455
0.0638185
-0.0017639
0.0633187
-0.00186104
0.0628004
-0.00193819
0.0622686
-0.00199714
0.061728
-0.00203894
0.0611831
-0.00206439
0.0606379
-0.00207447
0.0600961
-0.00207038
0.059561
-0.00205346
0.0590354
-0.00202494
0.0585219
-0.00198627
0.0580228
-0.00193826
0.0575396
-0.00188325
0.0570744
-0.00181975
0.0566272
-0.00175523
0.0562016
-0.00167611
0.0557921
-0.00161695
-0.00150297
0.064608
-0.00111672
-0.0650011
0.0641807
-0.00121821
0.0637236
-0.0013068
0.0632423
-0.00137973
0.0627421
-0.00143795
0.0622277
-0.00148275
0.0617036
-0.00151488
0.0611741
-0.00153488
0.0606431
-0.00154346
0.0601142
-0.00154148
0.0595907
-0.00152991
0.0590754
-0.00150964
0.0585708
-0.00148175
0.0580794
-0.00144682
0.0576027
-0.00140657
0.0571429
-0.00135993
0.0567001
-0.00131239
0.0562779
-0.00125393
0.0558711
-0.00121012
-0.00112547
0.0645088
-0.000736261
-0.0648892
0.0640948
-0.000804225
0.0636514
-0.000863403
0.0631838
-0.000912143
0.062697
-0.000951151
0.0621956
-0.000981316
0.0616838
-0.00100311
0.0611658
-0.00101689
0.0606455
-0.00102308
0.0601262
-0.00102227
0.0596114
-0.00101508
0.0591039
-0.0010021
0.0586062
-0.000984022
0.0581206
-0.000961253
0.0576489
-0.000934882
0.0571933
-0.000904288
0.0567538
-0.000872929
0.0563343
-0.000834471
0.0559296
-0.000805415
-0.000749522
0.0644414
-0.000364603
-0.0648131
0.0640366
-0.00039945
0.0636026
-0.00042933
0.0631442
-0.00045376
0.0626664
-0.000473316
0.0621735
-0.000488502
0.06167
-0.000499533
0.0611596
-0.000506556
0.0606463
-0.000509793
0.0601336
-0.000509534
0.0596246
-0.000506088
0.0591223
-0.000499758
0.0586291
-0.000490859
0.0581475
-0.000479649
0.0576792
-0.000466555
0.0572264
-0.000451498
0.0567892
-0.000435724
0.0563717
-0.000417029
0.0559681
-0.000401811
-0.000375219
0.0644069
-0.0647715
0.0640074
0.0635781
0.0631243
0.062651
0.0621625
0.061663
0.0611564
0.0606466
0.0601371
0.059631
0.0591312
0.0586404
0.0581607
0.0576942
0.0572427
0.0568069
0.0563899
0.0559881
0.0578189
0.00851704
-0.0568027
0.0589815
0.0130931
0.0602806
0.0176264
0.0617038
0.0220502
0.063209
0.0263324
0.0647645
0.0303572
0.0661713
0.0342098
0.0674844
0.0373523
0.0678493
0.0407863
0.0414799
0.0568929
0.00759668
-0.0559725
0.0579874
0.0119986
0.0592482
0.0163656
0.0606746
0.0206238
0.0622172
0.0247898
0.0639074
0.028667
0.0655363
0.0325809
0.0672869
0.0356017
0.0686194
0.0394538
0.0405173
0.0560834
0.00678153
-0.0552682
0.057095
0.0109869
0.0582924
0.0151683
0.0596863
0.0192299
0.0612244
0.0232517
0.062962
0.0269294
0.0647507
0.0307921
0.0666887
0.0336637
0.0686284
0.0375141
0.0390197
0.055394
0.00606001
-0.0546725
0.0563264
0.0100545
0.0574597
0.014035
0.0588088
0.0178807
0.0603345
0.021726
0.0620722
0.0251917
0.063963
0.0289014
0.0659589
0.0316678
0.0681768
0.0352963
0.0371148
0.0548064
0.00541543
-0.0541618
0.0556709
0.00918996
0.0567489
0.012957
0.05805
0.0165796
0.0595561
0.0202199
0.0612638
0.023484
0.0631895
0.0269756
0.065199
0.0296583
0.0675099
0.0329854
0.034952
0.0542994
0.00483437
-0.0537183
0.0551067
0.00838269
0.0561381
0.0119255
0.0573932
0.0153245
0.0588733
0.0187399
0.0605444
0.0218129
0.0624654
0.0250547
0.0644835
0.0276401
0.0668056
0.0306633
0.0326542
0.0538578
0.00430694
-0.0533304
0.0546165
0.00762404
0.0556082
0.0109338
0.0568235
0.0141092
0.0582759
0.0172875
0.0599179
0.0201709
0.0618177
0.0231549
0.0638403
0.0256176
0.0661424
0.0283612
0.0302983
0.0534717
0.00382559
-0.0529904
0.0541889
0.00690683
0.0551461
0.00997669
0.0563289
0.0129263
0.0577546
0.0158618
0.0593752
0.0185503
0.0612485
0.0212815
0.0632685
0.0235976
0.0655439
0.0260858
0.0279235
0.0531341
0.00338419
-0.0526927
0.0538159
0.00622509
0.0547425
0.00905001
0.0558987
0.0117702
0.0572994
0.014461
0.0589028
0.0169469
0.0607505
0.0194338
0.0627634
0.0215848
0.0650146
0.0238346
0.0255476
0.0528396
0.00297755
-0.0524329
0.0534908
0.00557383
0.0543906
0.00815028
0.0555241
0.0106366
0.0569022
0.0130829
0.0584906
0.0153585
0.0603164
0.017608
0.0623201
0.0195811
0.0645507
0.021604
0.0231781
0.0525835
0.00260113
-0.0522071
0.0532086
0.00494879
0.0540846
0.00727423
0.0551988
0.00952248
0.056557
0.0117247
0.0581318
0.0137837
0.0599391
0.0158007
0.0619329
0.0175873
0.0641457
0.0193912
0.0208177
0.0523624
0.00225088
-0.0520121
0.0529649
0.0043463
0.0538204
0.00641873
0.0549176
0.0084252
0.0562587
0.0103837
0.0578211
0.0122213
0.0596128
0.0140089
0.0615966
0.0156035
0.0637937
0.0171941
0.0184671
0.0521729
0.00192309
-0.0518451
0.0527561
0.0037631
0.053594
0.00558082
0.0546767
0.00734247
0.0560032
0.00905724
0.0575545
0.01067
0.0593329
0.0122305
0.061307
0.0136293
0.0634902
0.0150109
0.0161267
0.0520125
0.00161486
-0.0517043
0.0525794
0.00319619
0.0534025
0.00475777
0.0544728
0.00627215
0.055787
0.00774302
0.0573285
0.00912851
0.0590956
0.0104634
0.0610609
0.011664
0.0632316
0.0128402
0.0137964
0.0518787
0.00132039
-0.0515842
0.0524321
0.0026428
0.0532429
0.00394693
0.054303
0.00521211
0.0556072
0.00643881
0.0571404
0.00759533
0.0588981
0.00870567
0.0608555
0.00970667
0.0630151
0.0106806
0.0114759
0.0517704
0.0010396
-0.0514896
0.0523126
0.00210064
0.0531134
0.00314611
0.0541651
0.00416044
0.0554613
0.00514256
0.0569877
0.0060689
0.0587378
0.00695565
0.0606883
0.00775616
0.0628382
0.0085306
0.00916489
0.0516857
0.000769669
-0.0514157
0.0522189
0.00156743
0.0530119
0.00235306
0.0540571
0.00311525
0.0553473
0.00385239
0.0568685
0.0045477
0.0586125
0.00521167
0.0605572
0.00581141
0.0626989
0.00638895
0.00686271
0.051623
0.000508005
-0.0513614
0.0521495
0.00104102
0.0529368
0.0015657
0.0539774
0.00207467
0.0552633
0.00256644
0.0567809
0.00303016
0.0585205
0.0034721
0.0604606
0.00387123
0.0625953
0.0042543
0.00456876
0.0515809
0.000252905
-0.0513258
0.0521028
0.000519202
0.0528865
0.000781984
0.0539243
0.00103682
0.0552079
0.00128285
0.0567234
0.0015147
0.0584601
0.00173536
0.060397
0.00193438
0.0625262
0.00212512
0.00228183
0.0515592
-0.0513063
0.0520784
0.0528604
0.0538972
0.0551801
0.0566948
0.0584301
0.0603645
0.0624896
0.0274826
0.0404026
-0.0374222
-0.030463
0.02421
0.0411767
-0.0379041
0.0208613
0.0421699
-0.0388213
0.0174475
0.0433853
-0.0399715
0.0139638
0.0448086
-0.0413248
0.0104213
0.0464239
-0.0428814
0.00689166
0.0479257
-0.044396
0.00360289
0.0479649
-0.0446761
0.00104994
0.04268
-0.040127
0.0236777
-0.0226278
0.0246802
0.0434527
-0.0277302
0.0216156
0.0442413
0.0185142
0.0452713
0.0153632
0.0465363
0.0121483
0.0480235
0.00888602
0.0496861
0.00567526
0.0511365
0.00278046
0.0508597
0.00068807
0.0447723
0.0243658
0.021762
0.0462561
-0.0245654
0.0189096
0.0470937
0.0160276
0.0481533
0.0131153
0.0494486
0.0101631
0.0509757
0.00719558
0.0526536
0.00433547
0.0539966
0.00188219
0.0533129
0.000296069
0.0463585
0.0246618
0.0185582
0.0488031
-0.0211052
0.0159597
0.0496921
0.0133312
0.0507818
0.0106813
0.0520985
0.00801208
0.0536449
0.00536527
0.0553004
0.00288743
0.0564744
0.000908991
0.0552914
-0.000112523
0.04738
0.0245493
0.0150714
0.0510823
-0.0173506
0.0127519
0.0520117
0.0104087
0.053125
0.00805104
0.0544562
0.00569325
0.0560027
0.00340028
0.0575934
0.001352
0.0585227
-0.00014899
0.0567924
-0.000502129
0.0477331
0.0240472
0.0113291
0.0530664
-0.0133131
0.00931394
0.0540268
0.00727951
0.0551595
0.00523936
0.0564963
0.0032217
0.0580204
0.00131751
0.0594976
-0.000259489
0.0600997
-0.0010798
0.0576127
-0.000874759
0.0475281
0.0231724
0.00737166
0.0547251
-0.00903039
0.00568159
0.0557168
0.00397382
0.0568672
0.00227429
0.0581958
0.000625828
0.0596688
-0.00084586
0.0609693
-0.00186852
0.0611224
-0.00207473
0.0578189
-0.00122965
0.046683
0.0219428
0.00323945
0.0560491
-0.00456347
0.00188083
0.0570755
0.000522978
0.0582251
-0.000822319
0.0595411
-0.00207814
0.0609247
-0.00307624
0.0619674
-0.00352461
0.0615707
-0.00304931
0.0573436
-0.00155216
0.0451859
0.0203906
-0.00103007
0.0571124
-3.32062e-05
-0.00204967
0.0580951
-0.00306204
0.0592375
-0.0040301
0.0605092
-0.0048562
0.0617508
-0.00534048
0.0624517
-0.00515696
0.0613872
-0.00396284
0.0561495
-0.00182379
0.0430468
0.0185668
-0.00542729
0.00482682
-0.0060792
-0.00672388
-0.00729538
-0.0076609
-0.00758037
-0.00671234
-0.00477668
-0.00202857
0.0378312
0.00370804
-0.0415393
0.033993
0.0038382
0.0300086
0.00398441
0.0258626
0.00414596
0.0215335
0.00432918
0.0169942
0.00453922
0.0122303
0.00476395
0.00732625
0.00490403
0.00274911
0.00457714
0.00274911
0.0377114
0.00742049
-0.0414238
0.0338715
0.00767808
0.0298888
0.00796715
0.0257478
0.00828687
0.0214271
0.0086499
0.0168999
0.00906647
0.012151
0.00951285
0.00726697
0.00978804
0.00272582
0.00911828
0.00547494
0.0374614
0.0111398
-0.0411807
0.0336197
0.0115198
0.0296413
0.0119455
0.025511
0.0124172
0.0212071
0.0129537
0.0167038
0.0135698
0.0119882
0.0142284
0.00715153
0.0146247
0.00266974
0.0136001
0.00814468
0.0370621
0.0148626
-0.0407848
0.0332226
0.0153592
0.0292544
0.0159138
0.0251429
0.0165287
0.020867
0.0172296
0.0164019
0.018035
0.0117381
0.0188922
0.00697335
0.0193895
0.00258543
0.017988
0.0107301
0.0364902
0.018581
-0.0402087
0.0326603
0.0191892
0.0287113
0.0198628
0.02463
0.02061
0.0203959
0.0214637
0.0159855
0.0224454
0.0113942
0.0234835
0.00672904
0.0240546
0.00247056
0.0222465
0.0132007
0.0357281
0.0222882
-0.0394354
0.0319147
0.0230026
0.0279938
0.0237837
0.0239552
0.0246486
0.0197789
0.0256399
0.0154428
0.0267815
0.010948
0.0279784
0.00641339
0.0285892
0.00232289
0.026337
0.0155236
0.0347365
0.0259755
-0.0384239
0.0309518
0.0267873
0.0270755
0.02766
0.0230991
0.0286251
0.0190009
0.0297381
0.0147615
0.0310209
0.0103903
0.0323496
0.00602074
0.0329587
0.00214036
0.0302174
0.0176639
0.0335362
0.0296391
-0.0371998
0.029771
0.0305525
0.0259519
0.0314792
0.0220568
0.0325201
0.0180565
0.0337383
0.013936
0.0351415
0.009716
0.0365695
0.00554784
0.0371269
0.00192195
0.0338432
0.0195859
0.0319115
0.033364
-0.0356364
0.0281955
0.0342685
0.0244981
0.0351765
0.0207384
0.0362799
0.0168847
0.037592
0.0129298
0.0390965
0.00890603
0.0405933
0.00498654
0.0410464
0.00166604
0.0371637
0.0212519
0.0302613
-0.0343196
0.0266258
0.022981
0.0192894
0.0155566
0.0117716
0.00796885
0.00433913
0.00137585
0.0458975
-0.000203517
0.0461
-0.000202513
0.0462941
-0.000194067
0.0464748
-0.000180715
0.0466374
-0.000162573
0.0467769
-0.000139589
0.0468884
-0.000111409
0.0469659
-7.75282e-05
0.0470035
-3.75882e-05
0.0469937
9.74375e-06
0.0469233
7.03884e-05
0.0467848
0.000138544
0.0465679
0.000216906
0.0462606
0.000307281
0.0458491
0.000411471
0.0453177
0.000531434
0.0446474
0.000670312
0.0438145
0.000832936
0.0427937
0.00102073
0.00125447
0.046058
-0.000396606
0.0462489
-0.000393431
0.0464305
-0.000375596
0.0465982
-0.000348488
0.0467477
-0.000312064
0.0468741
-0.000265985
0.0469722
-0.000209509
0.0470364
-0.000141745
0.047061
-6.21905e-05
0.0470362
3.4594e-05
0.0469513
0.000155242
0.0467983
0.000291601
0.0465668
0.00044841
0.0462448
0.000629303
0.0458182
0.000838007
0.0452709
0.00107875
0.0445845
0.00135676
0.0437352
0.00168219
0.042698
0.00205797
0.00252861
0.0463746
-0.000564056
0.0465395
-0.000558394
0.046695
-0.00053107
0.0468365
-0.000489961
0.0469594
-0.000435004
0.0470591
-0.000365641
0.0471303
-0.000280755
0.0471677
-0.000179134
0.0471655
-6.00198e-05
0.04711
9.01486e-05
0.0469955
0.000269716
0.0468129
0.000474168
0.0465518
0.00070951
0.0462
0.000981121
0.0457433
0.00129475
0.0451648
0.00165728
0.0444455
0.00207601
0.043563
0.0025647
0.042493
0.00312797
0.00384089
0.0468337
-0.000691948
0.0469582
-0.000682918
0.047073
-0.000645888
0.0471736
-0.000590559
0.0472554
-0.000516746
0.0473133
-0.00042363
0.0473424
-0.000309816
0.0473375
-0.000174235
0.0472963
-1.88107e-05
0.0471938
0.000192695
0.0470336
0.000429826
0.0468057
0.00070207
0.0464992
0.00101607
0.0461017
0.0013786
0.0455991
0.00179736
0.0449742
0.00228216
0.0442073
0.00284296
0.0432738
0.00349811
0.0421538
0.00424804
0.00520987
0.0474175
-0.000764849
0.0474859
-0.000751307
0.0475443
-0.000704357
0.0475884
-0.000634668
0.0476136
-0.000541955
0.0476153
-0.00042531
0.0475893
-0.000283763
0.0475303
-0.00011528
0.0474172
9.42869e-05
0.0472545
0.000355408
0.0470333
0.000651067
0.0467438
0.000991488
0.0463756
0.00138436
0.045916
0.00183814
0.0453511
0.00236227
0.0446636
0.00296965
0.0438347
0.00367187
0.0428371
0.0044957
0.0416523
0.00543284
0.00665351
0.0481041
-0.000765787
0.0480992
-0.000746415
0.0480844
-0.000689541
0.0480552
-0.000605434
0.0480067
-0.000493521
0.047934
-0.000352583
0.0478319
-0.000181614
0.047703
1.36289e-05
0.0475061
0.000291158
0.0472643
0.000597174
0.0469643
0.000951109
0.0465956
0.00136015
0.0461477
0.00183227
0.0456082
0.00237767
0.0449632
0.00300722
0.0441955
0.00373738
0.0432879
0.00457949
0.0422113
0.00557226
0.0409553
0.00668884
0.00817344
0.0488704
-0.000675958
0.0487734
-0.000649346
0.0486667
-0.000582888
0.0485457
-0.000484468
0.048405
-0.000352729
0.0482416
-0.0001892
0.0480659
-5.97322e-06
0.0478085
0.000271106
0.0475227
0.000576922
0.0471866
0.000933298
0.0467907
0.00134695
0.0463256
0.00182531
0.0457805
0.00237735
0.0451432
0.00301496
0.0444007
0.00374968
0.0435355
0.00460259
0.0425335
0.00558152
0.0413622
0.00674352
0.0400261
0.008025
0.00977567
0.0496922
-0.000476856
0.0494857
-0.000442904
0.0492698
-0.000366997
0.0490401
-0.000254692
0.0487974
-0.000110051
0.0485302
7.80165e-05
0.048195
0.000329209
0.0478416
0.000624515
0.0474447
0.000973757
0.0469957
0.00138233
0.0464859
0.00185673
0.0459058
0.00240539
0.0452454
0.00303777
0.044493
0.00376733
0.0436377
0.00460504
0.0426628
0.00557747
0.0415607
0.00668361
0.0402952
0.00800907
0.0388875
0.0094327
0.0114634
0.0505438
-0.00014563
0.0502052
-0.000104242
0.0498697
-3.15027e-05
0.0495164
9.85529e-05
0.0491303
0.000276109
0.0487093
0.000498947
0.0482647
0.000773824
0.0477826
0.00110665
0.0472547
0.00150164
0.0466731
0.0019639
0.0460294
0.00250044
0.0453143
0.00312053
0.0445179
0.00383409
0.0436291
0.00465616
0.0426377
0.00559649
0.041527
0.00668818
0.0402953
0.00791523
0.0389024
0.00940201
0.0374142
0.0109209
0.0132412
0.0514532
0.000343795
0.0509613
0.000387682
0.0504515
0.000478302
0.0499304
0.00061963
0.0493938
0.000812713
0.048833
0.00105974
0.0482408
0.00136599
0.0476107
0.00173676
0.0469357
0.00217665
0.0462081
0.00269147
0.0454199
0.00328865
0.0445628
0.00397768
0.0436287