/*--------------------------------*- C++ -*----------------------------------*\
| =========                 |                                                 |
| \\      /  F ield         | OpenFOAM: The Open Source CFD Toolbox           |
|  \\    /   O peration     | Version:  4.1                                   |
|   \\  /    A nd           | Web:      www.OpenFOAM.org                      |
|    \\/     M anipulation  |                                                 |
\*---------------------------------------------------------------------------*/
FoamFile
{
    version     2.0;
    format      ascii;
    class       volVectorField;
    location    "3.8";
    object      U;
}
// * * * * * * * * * * * * * * * * * * * * * * * * * * * * * * * * * * * * * //

dimensions      [0 1 -1 0 0 0 0];

internalField   nonuniform List<vector> 
2000
(
(0.00864466 -0.00164122 1.12871e-20)
(0.101929 -0.0454383 0)
(0.250547 -0.0943203 1.43074e-20)
(0.421631 -0.140995 5.16513e-21)
(0.589693 -0.179368 -9.34197e-21)
(0.736689 -0.207016 -6.91157e-21)
(0.853553 -0.224285 2.64213e-21)
(0.93867 -0.233103 0)
(0.996692 -0.233548 1.73711e-21)
(1.02461 -0.238164 0)
(0.0236179 -0.0108446 -5.5115e-21)
(0.152542 -0.0639921 4.17517e-21)
(0.336614 -0.112282 -1.78387e-20)
(0.533499 -0.152339 -2.04583e-20)
(0.712732 -0.181086 -4.68578e-22)
(0.8572 -0.198596 1.99997e-21)
(0.962186 -0.2069 -1.77951e-21)
(1.03116 -0.20848 7.42323e-22)
(1.07169 -0.204581 -1.73712e-21)
(1.08683 -0.205553 -7.56957e-21)
(0.0435914 -0.0197713 6.72613e-21)
(0.214582 -0.0793196 -6.3002e-21)
(0.434662 -0.122902 9.00708e-21)
(0.651535 -0.153058 -7.40532e-22)
(0.832785 -0.170812 5.00976e-21)
(0.966052 -0.17868 2.94259e-21)
(1.05324 -0.179805 9.92359e-22)
(1.10321 -0.176827 -7.42329e-22)
(1.12654 -0.17138 -2.90322e-21)
(1.13049 -0.170038 4.11878e-21)
(0.0690309 -0.0276241 -4.89208e-22)
(0.287397 -0.0891282 -7.17781e-21)
(0.540958 -0.123613 0)
(0.769325 -0.141685 6.4252e-21)
(0.943107 -0.148711 -6.47456e-21)
(1.05837 -0.14881 0)
(1.12473 -0.145262 0)
(1.15589 -0.14011 0)
(1.16437 -0.13444 2.90329e-21)
(1.15814 -0.132592 -9.6187e-21)
(0.100084 -0.033411 1.80279e-20)
(0.369117 -0.0911168 -2.34606e-22)
(0.650379 -0.112643 6.04935e-21)
(0.880426 -0.11807 4.07311e-21)
(1.03864 -0.116135 2.41923e-21)
(1.13188 -0.111193 7.97944e-22)
(1.17717 -0.105692 0)
(1.19159 -0.100634 -1.63255e-21)
(1.18826 -0.0965183 1.26135e-20)
(1.17539 -0.0952935 -1.77975e-20)
(0.136456 -0.0360044 -2.8657e-20)
(0.45664 -0.0833099 9.19203e-22)
(0.757217 -0.0892991 -1.14282e-20)
(0.979478 -0.083206 9.23674e-21)
(1.1165 -0.0750806 -5.31286e-21)
(1.18655 -0.0680532 1.91869e-21)
(1.21258 -0.0630153 0)
(1.21338 -0.0597543 1.63261e-21)
(1.20153 -0.0580283 -2.46375e-21)
(1.18411 -0.0581324 -1.57947e-20)
(0.177323 -0.0342541 0)
(0.545883 -0.0644147 0)
(0.856074 -0.0540096 -5.27237e-21)
(1.06279 -0.0388612 4.90843e-21)
(1.17578 -0.0277405 -8.39837e-22)
(1.22371 -0.0213788 7.88492e-22)
(1.23348 -0.0187503 -4.38851e-21)
(1.224 -0.0185086 4.14814e-21)
(1.20647 -0.0197906 7.87336e-21)
(1.18647 -0.0217452 -3.7085e-21)
(0.221293 -0.0271374 5.34314e-21)
(0.632267 -0.0340835 0)
(0.942538 -0.00814654 -1.98885e-21)
(1.12835 0.0128102 6.76214e-21)
(1.21693 0.0237935 -2.33536e-21)
(1.24529 0.0272119 0)
(1.24224 0.0260383 0)
(1.22557 0.02252 0)
(1.20462 0.0179968 9.65853e-21)
(1.18335 0.0138364 -9.18045e-21)
(0.26647 -0.0139188 -2.90761e-21)
(0.711327 0.00700135 -3.04334e-22)
(1.01344 0.046253 -2.86688e-21)
(1.1755 0.0695626 4.72294e-22)
(1.24115 0.077646 6.12479e-22)
(1.25327 0.0763946 -5.1361e-22)
(1.24079 0.0705108 0)
(1.21957 0.062828 1.30952e-21)
(1.19694 0.054962 7.35432e-21)
(1.17536 0.0482717 -5.56504e-21)
(0.310611 0.00569603 0)
(0.779267 0.0572836 -1.97693e-21)
(1.06687 0.106798 0)
(1.20453 0.129211 -4.81184e-22)
(1.24993 0.132166 -4.30104e-22)
(1.2494 0.125062 5.74737e-22)
(1.23055 0.113957 0)
(1.20694 0.101944 -1.30959e-21)
(1.18398 0.0907358 -1.4991e-21)
(1.16293 0.0813126 -1.85807e-21)
(-0.00623769 0.00501441 0)
(-0.0200937 0.00689009 2.53226e-22)
(-0.0336177 0.00488661 0)
(-0.0394311 0.00108648 4.75649e-22)
(-0.0365351 -0.00358429 1.86527e-22)
(-0.025399 -0.008635 -4.88331e-22)
(-0.00676606 -0.0137378 4.59873e-22)
(0.0183245 -0.0185803 -5.62579e-22)
(0.0486036 -0.0228475 5.84452e-23)
(0.0823826 -0.0259316 -6.50419e-22)
(-0.00722214 0.014476 7.11903e-22)
(-0.0200959 0.0197411 -4.93888e-22)
(-0.0307327 0.0137344 4.17289e-22)
(-0.0328825 0.00244832 -2.96326e-22)
(-0.0259619 -0.0113902 -1.71027e-21)
(-0.0106667 -0.0263213 7.12097e-22)
(0.0121034 -0.0413094 0)
(0.0411174 -0.0555589 5.60696e-22)
(0.0750533 -0.0680958 6.24277e-22)
(0.112381 -0.0771363 0)
(-0.00898604 0.0223004 -4.52958e-22)
(-0.0198502 0.0299206 0)
(-0.0248267 0.0198737 -1.2237e-21)
(-0.0198125 0.00143435 1.74775e-21)
(-0.00498702 -0.0210909 -3.31383e-22)
(0.0185336 -0.0452056 0)
(0.0493974 -0.0692584 0)
(0.0859766 -0.0920228 0)
(0.126877 -0.111981 -4.75728e-21)
(0.17098 -0.126298 4.5215e-21)
(-0.0111239 0.0276873 0)
(-0.0188346 0.0360309 2.91322e-22)
(-0.0155302 0.0217705 -6.98472e-22)
(-8.38809e-05 -0.00343554 3.99023e-22)
(0.0262798 -0.0338445 -8.84564e-22)
(0.0617609 -0.0660466 3.18339e-21)
(0.104286 -0.097846 7.53981e-22)
(0.151631 -0.127565 -2.80799e-21)
(0.202002 -0.153427 -4.16213e-21)
(0.255379 -0.171719 5.97007e-21)
(-0.01313 0.0302421 -2.28817e-23)
(-0.0162982 0.0371807 -8.30353e-22)
(-0.00225283 0.0183487 -3.43353e-22)
(0.0267784 -0.0131794 1.36752e-22)
(0.0680964 -0.0504653 -8.42997e-22)
(0.118827 -0.0893525 1.26433e-21)
(0.175947 -0.127041 0)
(0.236371 -0.161531 1.04974e-21)
(0.297482 -0.19108 -1.38797e-21)
(0.361342 -0.211253 7.49801e-21)
(-0.0144589 0.0299393 -2.67434e-22)
(-0.0112147 0.0330547 1.42018e-21)
(0.0161669 0.00913624 3.63061e-22)
(0.0618216 -0.0282056 1.09047e-21)
(0.121225 -0.0712109 -9.3625e-23)
(0.189956 -0.114997 -3.8497e-22)
(0.263624 -0.156258 0)
(0.338076 -0.192781 -1.04969e-21)
(0.409519 -0.223232 -4.38669e-21)
(0.483004 -0.24246 8.29404e-22)
(-0.0145624 0.0270467 1.06279e-22)
(-0.00233087 0.0238742 1.52105e-21)
(0.0413556 -0.00569844 0)
(0.10679 -0.0482492 -4.98376e-22)
(0.187079 -0.095464 1.36961e-21)
(0.275665 -0.141906 0)
(0.366344 -0.18397 0)
(0.453799 -0.21945 0)
(0.533196 -0.247781 1.66983e-21)
(0.612672 -0.262997 6.04551e-21)
(-0.0129012 0.0219905 -2.35481e-21)
(0.0118205 0.0103054 2.20578e-21)
(0.075359 -0.0252778 3.9671e-21)
(0.163823 -0.0720839 9.86283e-22)
(0.267159 -0.121501 2.39249e-21)
(0.375973 -0.167847 1.50857e-21)
(0.481996 -0.207622 5.55291e-22)
(0.578963 -0.239064 -4.16801e-22)
(0.662066 -0.262461 -1.66974e-21)
(0.741093 -0.271303 2.53145e-21)
(-0.00890673 0.0152307 -1.06773e-20)
(0.0328495 -0.00664972 -2.26926e-21)
(0.120393 -0.0480698 -8.57343e-21)
(0.23491 -0.0975354 -3.42664e-21)
(0.362129 -0.146508 7.96673e-22)
(0.489256 -0.189593 -7.54743e-22)
(0.606253 -0.223998 1.66139e-21)
(0.706744 -0.249002 4.16781e-22)
(0.787965 -0.265215 -1.25825e-21)
(0.858412 -0.267433 4.61472e-21)
(-0.00195712 0.00721483 7.54353e-21)
(0.0623919 -0.0257285 0)
(0.178406 -0.0719491 5.16405e-21)
(0.321092 -0.121634 -6.85426e-23)
(0.47084 -0.166961 8.00625e-22)
(0.611547 -0.203595 1.4481e-21)
(0.732564 -0.230109 -4.29103e-21)
(0.828928 -0.247211 0)
(0.901746 -0.25499 1.25822e-21)
(0.954937 -0.254481 0)
(0.116133 -0.0268961 0)
(0.15033 -0.0275137 8.34631e-22)
(0.185193 -0.0279616 -1.72463e-21)
(0.220788 -0.0281215 7.77828e-22)
(0.256719 -0.0279613 0)
(0.292549 -0.0275156 -9.62598e-22)
(0.327913 -0.0268288 9.67373e-22)
(0.362505 -0.0259399 0)
(0.396056 -0.0248861 0)
(0.428345 -0.023705 -1.12102e-22)
(0.459197 -0.022433 0)
(0.488484 -0.0211039 0)
(0.516124 -0.019748 0)
(0.542074 -0.0183922 0)
(0.566311 -0.01706 1.31969e-22)
(0.588913 -0.0157709 -1.32653e-22)
(0.609718 -0.014545 0)
(0.629583 -0.013379 2.91022e-23)
(0.645841 -0.0123651 -2.92553e-23)
(0.668354 -0.0111754 0)
(0.147224 -0.0797738 0)
(0.180523 -0.0815566 -1.87422e-22)
(0.214027 -0.0828375 0)
(0.248264 -0.0832476 -3.49246e-21)
(0.282745 -0.0827132 3.39568e-21)
(0.316993 -0.0813461 -2.31099e-22)
(0.350688 -0.0792766 1.88493e-21)
(0.383572 -0.0766175 -3.98309e-21)
(0.415413 -0.0734778 3.44257e-21)
(0.446015 -0.0699679 -1.91998e-21)
(0.475226 -0.0661949 -1.62516e-21)
(0.502937 -0.062258 2.94225e-21)
(0.529078 -0.0582462 -1.51133e-21)
(0.553619 -0.0542383 -7.65209e-22)
(0.576544 -0.0503031 6.07686e-22)
(0.597934 -0.0464963 -1.18258e-22)
(0.617621 -0.0428813 -9.47621e-23)
(0.63647 -0.0394336 -1.14386e-22)
(0.651821 -0.0364625 1.1494e-22)
(0.673255 -0.0329072 -1.73389e-23)
(0.207288 -0.12994 1.53821e-22)
(0.238766 -0.132673 1.87743e-22)
(0.269575 -0.134604 1.8974e-22)
(0.301091 -0.135071 0)
(0.332688 -0.134012 4.01113e-21)
(0.36382 -0.131636 -3.1335e-21)
(0.394246 -0.128156 0)
(0.423806 -0.123749 4.55396e-22)
(0.452332 -0.118588 2.26638e-22)
(0.479674 -0.112848 -2.93408e-21)
(0.505721 -0.106701 2.06081e-22)
(0.5304 -0.100307 3.56874e-21)
(0.553667 -0.0938065 1.73953e-22)
(0.575513 -0.0873239 1.59381e-22)
(0.59593 -0.0809688 1.36512e-22)
(0.61501 -0.0748262 -3.01015e-22)
(0.632578 -0.0690046 2.8275e-22)
(0.649479 -0.0634376 3.24717e-22)
(0.663171 -0.0586888 7.19305e-23)
(0.682509 -0.0528957 4.02366e-24)
(0.292385 -0.175508 4.76973e-21)
(0.321023 -0.178874 5.79556e-22)
(0.347815 -0.181204 3.33502e-22)
(0.375243 -0.181477 -6.07863e-21)
(0.402564 -0.179707 -6.16243e-22)
(0.429146 -0.176227 -2.20815e-22)
(0.45485 -0.171327 6.56721e-21)
(0.479642 -0.165233 -3.76927e-21)
(0.503445 -0.158172 -3.47847e-21)
(0.526168 -0.150376 3.44713e-21)
(0.547754 -0.142075 -1.91257e-22)
(0.568175 -0.133476 -3.63068e-21)
(0.587425 -0.124762 -1.72503e-22)
(0.605519 -0.116096 -1.44621e-21)
(0.622461 -0.107618 1.01274e-21)
(0.638348 -0.0994339 8.08838e-22)
(0.653004 -0.0916962 -7.24621e-22)
(0.667223 -0.0842776 0)
(0.678669 -0.0780141 -1.22124e-22)
(0.695119 -0.0702446 -1.61534e-23)
(0.397071 -0.214404 -7.69184e-21)
(0.421627 -0.218108 4.67638e-21)
(0.443116 -0.220624 -4.95387e-21)
(0.465131 -0.220503 0)
(0.486881 -0.217898 4.0193e-22)
(0.507651 -0.213295 6.54887e-21)
(0.527402 -0.207039 5.07768e-22)
(0.546244 -0.199397 -3.60788e-23)
(0.564201 -0.190639 -6.62678e-21)
(0.58125 -0.181051 -4.06482e-22)
(0.597394 -0.170908 0)
(0.612658 -0.160454 3.62179e-22)
(0.627075 -0.149905 0)
(0.640682 -0.139446 2.98094e-22)
(0.653493 -0.129242 0)
(0.665605 -0.119404 0)
(0.67684 -0.110129 -1.74702e-22)
(0.687905 -0.101204 2.04345e-22)
(0.696759 -0.0937621 -1.79213e-22)
(0.709818 -0.084342 5.29365e-23)
(0.514598 -0.244529 0)
(0.533586 -0.248451 2.70896e-22)
(0.548652 -0.251079 1.01046e-20)
(0.564124 -0.250513 -9.78349e-21)
(0.579226 -0.247101 3.48309e-22)
(0.593189 -0.241483 0)
(0.60607 -0.234046 6.28846e-21)
(0.618114 -0.225092 -1.21939e-20)
(0.629453 -0.214943 6.6752e-21)
(0.640144 -0.203927 3.74078e-22)
(0.650251 -0.192352 3.58041e-22)
(0.659851 -0.180489 3.36225e-22)
(0.669008 -0.168571 0)
(0.677776 -0.156793 -1.83116e-21)
(0.686169 -0.145332 4.15986e-21)
(0.694267 -0.134291 -1.80834e-21)
(0.7019 -0.123915 1.62426e-22)
(0.709633 -0.113877 1.18747e-22)
(0.715813 -0.10563 -5.03444e-23)
(0.725298 -0.0949347 4.95611e-23)
(0.637097 -0.264094 -5.65283e-21)
(0.649065 -0.268368 0)
(0.656996 -0.271184 2.60795e-22)
(0.665222 -0.270304 -6.20473e-22)
(0.672974 -0.266303 -6.75796e-22)
(0.6795 -0.259941 -3.48169e-22)
(0.68496 -0.25163 -3.61911e-22)
(0.689732 -0.241724 5.61156e-21)
(0.694077 -0.230608 -6.73086e-21)
(0.698149 -0.218647 -6.43161e-21)
(0.702066 -0.206166 5.33676e-21)
(0.705937 -0.193441 -6.54387e-22)
(0.70984 -0.180703 2.28117e-21)
(0.713824 -0.168143 -5.3026e-22)
(0.717893 -0.15594 -2.48521e-21)
(0.722088 -0.144179 -1.95104e-22)
(0.72625 -0.133154 2.28543e-22)
(0.730761 -0.122407 -2.88867e-22)
(0.734419 -0.113718 -4.36149e-22)
(0.740445 -0.10213 -2.36227e-23)
(0.756196 -0.272189 0)
(0.760395 -0.277225 7.34671e-21)
(0.761115 -0.280417 -7.5765e-21)
(0.761884 -0.279529 3.00047e-22)
(0.761953 -0.275372 6.39424e-22)
(0.760773 -0.268716 3.47849e-22)
(0.758658 -0.259986 7.07188e-22)
(0.756115 -0.249597 0)
(0.75355 -0.23801 3.63881e-22)
(0.751224 -0.225639 3.54658e-22)
(0.749286 -0.212818 3.30783e-22)
(0.747837 -0.199809 6.28798e-22)
(0.74693 -0.186823 0)
(0.746582 -0.174029 0)
(0.746766 -0.1616 2.27441e-22)
(0.747466 -0.149587 1.73313e-21)
(0.748547 -0.138345 -1.19816e-21)
(0.75017 -0.127269 1.07975e-22)
(0.75163 -0.118465 2.21066e-22)
(0.754536 -0.106328 -6.40094e-23)
(0.864487 -0.270328 -4.81431e-21)
(0.86157 -0.276946 0)
(0.855416 -0.28063 0)
(0.848569 -0.280018 9.38252e-21)
(0.840768 -0.276042 5.18226e-22)
(0.831985 -0.269405 -2.07566e-20)
(0.822705 -0.260613 1.02618e-20)
(0.813477 -0.250163 0)
(0.804738 -0.238558 0)
(0.796795 -0.226238 0)
(0.78981 -0.21353 -1.65971e-22)
(0.783844 -0.200676 -4.56692e-22)
(0.778898 -0.187869 -4.23863e-21)
(0.774934 -0.17525 4.08538e-21)
(0.771886 -0.162986 -1.59984e-21)
(0.769671 -0.151093 1.40634e-21)
(0.768192 -0.139987 0)
(0.767382 -0.128915 -5.27383e-23)
(0.767044 -0.120289 -6.34475e-23)
(0.767331 -0.107971 0)
(0.957866 -0.262149 7.9952e-23)
(0.949613 -0.268557 7.17032e-21)
(0.936154 -0.271407 -7.09551e-21)
(0.921057 -0.270728 0)
(0.905524 -0.267039 -1.01082e-20)
(0.889952 -0.260902 2.05869e-20)
(0.874712 -0.252853 -1.04747e-20)
(0.860186 -0.243364 0)
(0.846673 -0.232808 -5.34917e-21)
(0.834409 -0.221484 1.04621e-20)
(0.823522 -0.209653 -5.2732e-21)
(0.814033 -0.197547 1.48112e-22)
(0.805905 -0.185367 0)
(0.799058 -0.173263 3.7528e-21)
(0.793413 -0.161431 -5.14611e-21)
(0.788824 -0.149871 1.5346e-21)
(0.78526 -0.139082 9.60683e-22)
(0.782418 -0.128188 -6.78392e-22)
(0.780614 -0.119881 -3.20668e-22)
(0.778782 -0.107672 0)
(1.04116 -0.232608 0)
(1.02132 -0.238535 0)
(0.997134 -0.241877 0)
(0.973684 -0.243516 0)
(0.952127 -0.243082 0)
(0.931992 -0.240416 0)
(0.912966 -0.235755 0)
(0.89514 -0.229452 0)
(0.878712 -0.221782 0)
(0.863797 -0.212973 0)
(0.850428 -0.203274 0)
(0.838581 -0.192921 0)
(0.828217 -0.182144 0)
(0.819252 -0.171113 0)
(0.811629 -0.16007 0)
(0.805163 -0.149022 0)
(0.799921 -0.138548 0)
(0.795366 -0.127721 0)
(0.792333 -0.1194 0)
(0.788526 -0.106953 0)
(1.06198 -0.208435 0)
(1.0428 -0.215885 0)
(1.0183 -0.220484 0)
(0.994372 -0.222776 0)
(0.972586 -0.222875 0)
(0.952319 -0.220877 0)
(0.933088 -0.217035 0)
(0.914953 -0.211658 0)
(0.898115 -0.20503 0)
(0.882676 -0.197398 0)
(0.868653 -0.188987 0)
(0.856024 -0.179998 0)
(0.844769 -0.170617 0)
(0.834817 -0.160977 0)
(0.826155 -0.151288 0)
(0.818581 -0.141524 0)
(0.812281 -0.132239 0)
(0.806512 -0.122509 0)
(0.802629 -0.115083 0)
(0.797101 -0.103692 0)
(1.07123 -0.183919 0)
(1.05282 -0.192297 0)
(1.0293 -0.197836 0)
(1.00608 -0.200847 0)
(0.984859 -0.201734 0)
(0.965087 -0.200743 0)
(0.946255 -0.19808 0)
(0.928391 -0.193984 0)
(0.911692 -0.188696 0)
(0.896265 -0.182434 0)
(0.882129 -0.175396 0)
(0.86926 -0.167754 0)
(0.857648 -0.159673 0)
(0.847226 -0.151275 0)
(0.838013 -0.142758 0)
(0.829784 -0.134089 0)
(0.822826 -0.125806 0)
(0.816223 -0.117015 0)
(0.811753 -0.110328 0)
(0.80501 -0.0998336 0)
(1.07161 -0.161571 0)
(1.05473 -0.170342 0)
(1.03301 -0.176476 0)
(1.01129 -0.180129 0)
(0.991245 -0.181748 0)
(0.97247 -0.18164 0)
(0.954506 -0.179996 0)
(0.937358 -0.177005 0)
(0.921212 -0.172874 0)
(0.906177 -0.167801 0)
(0.89228 -0.161962 0)
(0.879505 -0.155511 0)
(0.867856 -0.148599 0)
(0.857272 -0.141331 0)
(0.847801 -0.133891 0)
(0.839202 -0.12624 0)
(0.831848 -0.118889 0)
(0.824683 -0.110981 0)
(0.819829 -0.104973 0)
(0.812213 -0.095331 0)
(1.06673 -0.141668 0)
(1.05163 -0.150427 0)
(1.03205 -0.156834 0)
(1.01221 -0.160922 0)
(0.993679 -0.163101 0)
(0.976185 -0.163687 0)
(0.959348 -0.162863 0)
(0.94317 -0.160786 0)
(0.927819 -0.157633 0)
(0.913406 -0.153578 0)
(0.89997 -0.148781 0)
(0.887506 -0.143377 0)
(0.87603 -0.137501 0)
(0.86549 -0.131247 0)
(0.855961 -0.124783 0)
(0.847187 -0.118066 0)
(0.839616 -0.111576 0)
(0.832083 -0.104497 0)
(0.826985 -0.0991271 0)
(0.818731 -0.0903262 0)
(1.05936 -0.124185 0)
(1.04595 -0.132655 0)
(1.02852 -0.139069 0)
(1.01064 -0.143379 0)
(0.993706 -0.145938 0)
(0.977576 -0.14704 0)
(0.961947 -0.146854 0)
(0.94683 -0.145516 0)
(0.932377 -0.143173 0)
(0.918697 -0.139977 0)
(0.90584 -0.136069 0)
(0.89381 -0.131569 0)
(0.882637 -0.126598 0)
(0.872274 -0.121237 0)
(0.862818 -0.115644 0)
(0.854005 -0.109769 0)
(0.846346 -0.104061 0)
(0.838584 -0.0977512 0)
(0.83334 -0.0929717 0)
(0.824629 -0.0849772 0)
(1.05124 -0.108936 0)
(1.03931 -0.116912 0)
(1.02385 -0.123126 0)
(1.00781 -0.127476 0)
(0.992411 -0.130251 0)
(0.977599 -0.131709 0)
(0.963149 -0.132001 0)
(0.949081 -0.13124 0)
(0.935533 -0.129552 0)
(0.922612 -0.127065 0)
(0.910375 -0.123904 0)
(0.898834 -0.120175 0)
(0.88803 -0.115985 0)
(0.87792 -0.111406 0)
(0.868622 -0.106581 0)
(0.85986 -0.101459 0)
(0.852198 -0.0964555 0)
(0.84431 -0.0908514 0)
(0.838992 -0.0866138 0)
(0.829963 -0.0793842 0)
(1.04333 -0.0955791 0)
(1.03263 -0.10294 0)
(1.01888 -0.108816 0)
(1.00448 -0.113071 0)
(0.990477 -0.115929 0)
(0.976873 -0.11761 0)
(0.963512 -0.118242 0)
(0.950425 -0.117921 0)
(0.937738 -0.116751 0)
(0.925552 -0.114843 0)
(0.913927 -0.112304 0)
(0.902885 -0.109226 0)
(0.892475 -0.105707 0)
(0.882655 -0.101807 0)
(0.87356 -0.0976568 0)
(0.864905 -0.0932046 0)
(0.8573 -0.0888331 0)
(0.84936 -0.0838735 0)
(0.844017 -0.0801301 0)
(0.834775 -0.0736229 0)
(1.03606 -0.0837698 0)
(1.02635 -0.0904682 0)
(1.01404 -0.0959251 0)
(1.00106 -0.0999865 0)
(0.988291 -0.102825 0)
(0.975765 -0.10462 0)
(0.963383 -0.10548 0)
(0.951186 -0.105483 0)
(0.939289 -0.104718 0)
(0.927787 -0.103277 0)
(0.916744 -0.101252 0)
(0.906184 -0.0987241 0)
(0.896165 -0.095778 0)
(0.886646 -0.0924667 0)
(0.877776 -0.0889083 0)
(0.869262 -0.085051 0)
(0.861749 -0.0812447 0)
(0.853808 -0.076873 0)
(0.848477 -0.0735791 0)
(0.839102 -0.0677522 0)
(1.02953 -0.0732305 0)
(1.02062 -0.0792571 0)
(1.00953 -0.0842476 0)
(0.997766 -0.0880473 0)
(0.986065 -0.0907864 0)
(0.974484 -0.0926101 0)
(0.962968 -0.0936067 0)
(0.951565 -0.0938412 0)
(0.94038 -0.0933854 0)
(0.929501 -0.0923174 0)
(0.918994 -0.0907156 0)
(0.908887 -0.0886492 0)
(0.899241 -0.086193 0)
(0.89002 -0.0833921 0)
(0.88138 -0.0803526 0)
(0.873023 -0.0770239 0)
(0.865622 -0.0737235 0)
(0.857715 -0.0698883 0)
(0.85242 -0.0670035 0)
(0.842973 -0.0618169 0)
(1.02375 -0.0637355 0)
(1.01549 -0.0690988 0)
(1.00541 -0.0735994 0)
(0.994686 -0.0770914 0)
(0.983906 -0.0796723 0)
(0.973147 -0.0814577 0)
(0.96239 -0.0825184 0)
(0.951687 -0.0829071 0)
(0.941135 -0.0826821 0)
(0.930816 -0.0819085 0)
(0.920796 -0.0806525 0)
(0.911105 -0.0789732 0)
(0.901808 -0.0769353 0)
(0.892869 -0.0745774 0)
(0.884454 -0.0719937 0)
(0.876261 -0.0691359 0)
(0.868982 -0.0662895 0)
(0.861133 -0.0629452 0)
(0.855887 -0.0604335 0)
(0.846414 -0.0558502 0)
(1.01868 -0.0550995 0)
(1.01094 -0.059818 0)
(1.00171 -0.0638207 0)
(0.991864 -0.0669754 0)
(0.981872 -0.0693547 0)
(0.971824 -0.0710498 0)
(0.961727 -0.0721166 0)
(0.951637 -0.0725968 0)
(0.941642 -0.0725378 0)
(0.93182 -0.0719931 0)
(0.922236 -0.071018 0)
(0.91292 -0.0696625 0)
(0.903943 -0.0679822 0)
(0.895267 -0.0660096 0)
(0.887066 -0.0638275 0)
(0.879033 -0.0613909 0)
(0.87188 -0.0589533 0)
(0.864102 -0.0560601 0)
(0.858914 -0.05389 0)
(0.849446 -0.0498767 0)
(1.01426 -0.0471715 0)
(1.00696 -0.0512679 0)
(0.998432 -0.0547739 0)
(0.989322 -0.0575728 0)
(0.979999 -0.0597191 0)
(0.97056 -0.0612838 0)
(0.961031 -0.0623104 0)
(0.951471 -0.0628315 0)
(0.941963 -0.0628851 0)
(0.932577 -0.0625147 0)
(0.923377 -0.0617663 0)
(0.914397 -0.0606813 0)
(0.905707 -0.0593072 0)
(0.897272 -0.0576709 0)
(0.889268 -0.0558442 0)
(0.881389 -0.053786 0)
(0.874356 -0.0517187 0)
(0.866657 -0.049242 0)
(0.861531 -0.0473864 0)
(0.852089 -0.0439135 0)
(1.01046 -0.0398251 0)
(1.00351 -0.0433231 0)
(0.995569 -0.0463386 0)
(0.987073 -0.0487713 0)
(0.978313 -0.0506618 0)
(0.969388 -0.0520654 0)
(0.960342 -0.0530152 0)
(0.951237 -0.0535364 0)
(0.942146 -0.0536591 0)
(0.933136 -0.0534182 0)
(0.924272 -0.0528513 0)
(0.915585 -0.0519925 0)
(0.90715 -0.0508814 0)
(0.898928 -0.04954 0)
(0.891104 -0.0480298 0)
(0.883366 -0.046314 0)
(0.876448 -0.0445842 0)
(0.868827 -0.0424944 0)
(0.863763 -0.0409303 0)
(0.854362 -0.0379719 0)
(1.00725 -0.0329528 0)
(1.00058 -0.035875 0)
(0.993118 -0.0384085 0)
(0.985126 -0.0404696 0)
(0.976831 -0.0420886 0)
(0.968334 -0.0433077 0)
(0.959693 -0.0441522 0)
(0.950968 -0.0446411 0)
(0.94223 -0.0447978 0)
(0.93354 -0.0446499 0)
(0.924961 -0.0442275 0)
(0.916526 -0.0435582 0)
(0.90831 -0.0426743 0)
(0.900276 -0.0415937 0)
(0.892609 -0.0403674 0)
(0.884998 -0.0389639 0)
(0.878184 -0.0375442 0)
(0.87064 -0.0358165 0)
(0.865633 -0.0345244 0)
(0.85628 -0.0320586 0)
(1.0046 -0.0264599 0)
(0.99816 -0.0288271 0)
(0.991073 -0.030888 0)
(0.983487 -0.0325755 0)
(0.975568 -0.0339121 0)
(0.967418 -0.0349297 0)
(0.959107 -0.0356472 0)
(0.950694 -0.0360785 0)
(0.942246 -0.0362414 0)
(0.93382 -0.0361573 0)
(0.925479 -0.0358497 0)
(0.917255 -0.0353402 0)
(0.909223 -0.0346546 0)
(0.901346 -0.0338067 0)
(0.893814 -0.032838 0)
(0.886314 -0.0317222 0)
(0.87959 -0.03059 0)
(0.872116 -0.0292039 0)
(0.867161 -0.0281678 0)
(0.857857 -0.0261759 0)
(1.00249 -0.0202649 0)
(0.996221 -0.0220946 0)
(0.989429 -0.0236915 0)
(0.982159 -0.0250051 0)
(0.974533 -0.026052 0)
(0.966656 -0.0268558 0)
(0.958605 -0.0274299 0)
(0.950439 -0.0277843 0)
(0.942221 -0.0279322 0)
(0.934006 -0.0278893 0)
(0.925854 -0.0276732 0)
(0.917799 -0.0273003 0)
(0.909916 -0.0267899 0)
(0.902168 -0.0261529 0)
(0.894746 -0.0254205 0)
(0.887337 -0.0245727 0)
(0.880689 -0.02371 0)
(0.873274 -0.0226493 0)
(0.868364 -0.0218561 0)
(0.859105 -0.0203232 0)
(1.00089 -0.014305 0)
(0.994754 -0.0156091 0)
(0.988182 -0.0167472 0)
(0.981145 -0.0176854 0)
(0.973736 -0.0184364 0)
(0.966063 -0.0190166 0)
(0.958205 -0.019435 0)
(0.950224 -0.0196982 0)
(0.942178 -0.0198149 0)
(0.934121 -0.0197961 0)
(0.926112 -0.0196539 0)
(0.918184 -0.0193999 0)
(0.910414 -0.0190474 0)
(0.902764 -0.0186043 0)
(0.895426 -0.0180921 0)
(0.888087 -0.0174977 0)
(0.881497 -0.0168901 0)
(0.87413 -0.0161431 0)
(0.869254 -0.0155814 0)
(0.860033 -0.0144978 0)
(0.999803 -0.0084918 0)
(0.99376 -0.00928696 0)
(0.987339 -0.00997545 0)
(0.98046 -0.0105407 0)
(0.973197 -0.0109931 0)
(0.965658 -0.0113438 0)
(0.957929 -0.0115982 0)
(0.95007 -0.0117601 0)
(0.942139 -0.0118345 0)
(0.934187 -0.0118278 0)
(0.926273 -0.0117473 0)
(0.918431 -0.0115997 0)
(0.910735 -0.0113929 0)
(0.903152 -0.011132 0)
(0.89587 -0.0108285 0)
(0.88858 -0.0104773 0)
(0.882028 -0.0101141 0)
(0.874696 -0.00967397 0)
(0.869841 -0.00933247 0)
(0.860648 -0.0086955 0)
(0.999225 -0.00272842 0)
(0.99325 -0.00303391 0)
(0.986916 -0.00328622 0)
(0.980121 -0.00348716 0)
(0.97293 -0.00364488 0)
(0.965457 -0.00376584 0)
(0.957791 -0.00385326 0)
(0.949993 -0.00390901 0)
(0.942118 -0.0039351 0)
(0.934218 -0.00393394 0)
(0.926352 -0.00390802 0)
(0.918552 -0.00385976 0)
(0.910894 -0.00379158 0)
(0.903344 -0.00370555 0)
(0.896089 -0.00360482 0)
(0.888825 -0.00348909 0)
(0.88229 -0.00336743 0)
(0.87498 -0.00322357 0)
(0.870128 -0.00310646 0)
(0.860955 -0.00289978 0)
(1.14385 0.0718092 1.81533e-21)
(1.15558 0.0446654 0)
(1.16365 0.015836 -3.25407e-22)
(1.16768 -0.0145722 -9.97709e-21)
(1.16764 -0.0463502 1.4946e-20)
(1.16242 -0.0793869 0)
(1.15255 -0.113305 1.05937e-20)
(1.13187 -0.148538 0)
(1.111 -0.18152 7.92114e-21)
(1.05173 -0.221128 -1.35587e-22)
(1.12636 0.0630093 -2.11692e-21)
(1.137 0.0394301 4.22121e-22)
(1.14455 0.0143889 -4.22926e-22)
(1.1483 -0.0120312 -1.30641e-21)
(1.1495 -0.0395898 -9.71265e-21)
(1.14516 -0.0685116 -5.66518e-22)
(1.14092 -0.0975312 0)
(1.12314 -0.1299 -1.44142e-20)
(1.1172 -0.155951 0)
(1.07242 -0.198083 -1.1469e-20)
(1.11139 0.0547977 4.37284e-21)
(1.12055 0.034086 0)
(1.12734 0.0122269 -4.08195e-22)
(1.1304 -0.010867 -7.42724e-22)
(1.13243 -0.0345275 1.02919e-20)
(1.12826 -0.0599832 0)
(1.12752 -0.0838762 1.7951e-20)
(1.11257 -0.113591 1.48635e-20)
(1.11173 -0.133351 0)
(1.0818 -0.173627 1.13516e-20)
(1.0987 0.0476845 -1.98221e-21)
(1.1065 0.0294756 8.2525e-21)
(1.11249 0.010476 0)
(1.11483 -0.00978151 1.28682e-20)
(1.11712 -0.0299757 7.12403e-22)
(1.11318 -0.0526348 -1.35459e-21)
(1.11353 -0.0723342 -1.72034e-20)
(1.10167 -0.0995204 -5.79373e-22)
(1.10046 -0.115434 -1.697e-20)
(1.08145 -0.151245 0)
(1.08785 0.0415364 0)
(1.09453 0.0255203 -8.04321e-21)
(1.09975 0.00899988 -9.13518e-21)
(1.10151 -0.00886976 1.32738e-21)
(1.1035 -0.0261877 -8.54842e-22)
(1.09995 -0.0464338 -7.00144e-22)
(1.09979 -0.0630728 -2.08672e-20)
(1.09074 -0.0873996 -1.21536e-21)
(1.08789 -0.101102 -1.17244e-21)
(1.07558 -0.13171 1.69308e-20)
(1.07844 0.0361628 2.55453e-21)
(1.08423 0.0220648 5.48618e-22)
(1.08871 0.00765711 -1.4148e-21)
(1.09008 -0.00813784 4.98912e-22)
(1.09146 -0.0231347 -1.42216e-20)
(1.08839 -0.0410947 0)
(1.08726 -0.0555024 2.28416e-20)
(1.08034 -0.0767058 -6.86468e-22)
(1.07623 -0.0889813 3.84702e-20)
(1.06741 -0.114813 -3.5068e-20)
(1.07021 0.0314278 -2.5671e-21)
(1.07529 0.0190321 -4.84713e-21)
(1.07908 0.00643732 8.57213e-21)
(1.0802 -0.00747834 -1.53429e-20)
(1.08094 -0.0205768 -1.64771e-21)
(1.07831 -0.0363285 -1.36745e-20)
(1.07633 -0.0490359 7.32194e-22)
(1.07073 -0.0672505 -1.40163e-21)
(1.06593 -0.0784534 -1.91929e-20)
(1.0587 -0.100264 1.81249e-20)
(1.06299 0.0272396 0)
(1.06748 0.016372 1.04662e-20)
(1.07066 0.00535031 -1.13682e-21)
(1.07159 -0.00684322 8.41891e-21)
(1.07179 -0.0183484 -6.10807e-22)
(1.06945 -0.0320457 2.71254e-20)
(1.06692 -0.0433714 -1.2308e-20)
(1.062 -0.0589601 0)
(1.05691 -0.0691946 0)
(1.05035 -0.0876696 0)
(1.05668 0.023529 0)
(1.06065 0.0140376 -9.55951e-21)
(1.06331 0.00439602 -6.10451e-22)
(1.06405 -0.00623286 8.49577e-21)
(1.06383 -0.0163599 1.55938e-20)
(1.06164 -0.0282127 -1.51693e-20)
(1.05878 -0.0383211 1.47937e-20)
(1.05418 -0.0516621 -8.00377e-22)
(1.04904 -0.0609316 0)
(1.04277 -0.0766295 1.06708e-20)
(1.05117 0.0202366 3.39734e-22)
(1.05468 0.0119854 5.45894e-21)
(1.0569 0.00357071 8.55172e-21)
(1.05745 -0.00564938 -4.94224e-22)
(1.05692 -0.0145466 1.06556e-21)
(1.05475 -0.0247689 -1.62292e-20)
(1.05172 -0.033744 1.58527e-20)
(1.04727 -0.0451629 -8.28586e-22)
(1.04215 -0.0534733 0)
(1.03604 -0.0668362 -2.15939e-20)
(1.04638 0.0173104 0)
(1.04949 0.0101784 5.3879e-21)
(1.05133 0.00286917 1.93226e-22)
(1.05168 -0.00508624 0)
(1.05091 -0.0128606 0)
(1.04872 -0.021645 1.43791e-20)
(1.04559 -0.0295485 -1.31562e-20)
(1.0412 -0.0393121 -7.94819e-22)
(1.03613 -0.046689 4.18474e-22)
(1.03011 -0.0580579 1.12808e-20)
(1.04225 0.0147036 0)
(1.045 0.00858499 -1.02464e-20)
(1.04653 0.00228319 -1.12983e-20)
(1.04669 -0.0045342 1.73723e-21)
(1.04573 -0.011271 -1.11997e-21)
(1.04347 -0.018781 -9.62331e-22)
(1.04027 -0.0256721 1.83583e-21)
(1.03592 -0.0339908 1.19714e-20)
(1.03087 -0.0404697 1.17765e-21)
(1.02493 -0.0501086 -3.68536e-22)
(1.03871 0.012371 0)
(1.04115 0.00717561 5.51788e-21)
(1.04241 0.00180104 -6.23543e-22)
(1.04239 -0.00398547 6.1837e-22)
(1.04128 -0.00975737 0)
(1.03895 -0.0161262 0)
(1.0357 -0.0220624 0)
(1.03136 -0.0291005 -1.35988e-20)
(1.02633 -0.0347199 1.27906e-20)
(1.02044 -0.0428371 0)
(1.03572 0.0102899 0)
(1.03789 0.00592887 3.51803e-21)
(1.03892 0.00141106 4.5974e-21)
(1.03876 -0.00343418 6.06838e-21)
(1.03751 -0.0083044 -1.16192e-21)
(1.03512 -0.0136388 7.34189e-21)
(1.0318 -0.0186735 -6.69624e-21)
(1.02747 -0.0245599 0)
(1.02244 -0.0293578 6.46554e-22)
(1.01659 -0.0361194 -1.22585e-20)
(1.03321 0.00839123 -7.68345e-22)
(1.03517 0.00481601 -2.84867e-21)
(1.03602 0.00109993 -5.94158e-21)
(1.03572 -0.00287675 -4.2685e-21)
(1.03437 -0.00689978 0)
(1.03191 -0.0112844 -9.35967e-21)
(1.02855 -0.0154657 9.59782e-21)
(1.02421 -0.0203023 -9.15565e-22)
(1.01918 -0.0243131 -6.32748e-21)
(1.01334 -0.0298507 1.77537e-20)
(1.03119 0.00663643 7.72296e-22)
(1.03296 0.00381079 -2.20439e-21)
(1.03367 0.000853 2.01014e-21)
(1.03326 -0.00231267 -5.02083e-21)
(1.03181 -0.005534 0)
(1.02931 -0.00903532 0)
(1.0259 -0.0124039 9.46361e-22)
(1.02155 -0.0162703 -8.98892e-21)
(1.0165 -0.0195237 -5.65219e-21)
(1.01067 -0.02394 -5.9307e-21)
(1.02962 0.00502961 0)
(1.03124 0.00289862 3.63028e-21)
(1.03182 0.000657902 -1.34799e-21)
(1.03132 -0.00174381 4.4629e-21)
(1.02981 -0.00420144 1.20514e-21)
(1.02726 -0.00687118 -1.04082e-21)
(1.02382 -0.00946029 1.97162e-21)
(1.01945 -0.0124172 6.23556e-21)
(1.01439 -0.0149367 0)
(1.00855 -0.0183091 0)
(1.02847 0.0035323 0)
(1.02997 0.00206061 1.48052e-21)
(1.03046 0.00050339 -2.74544e-21)
(1.02989 -0.00117257 0)
(1.02832 -0.00289874 -2.35941e-21)
(1.02574 -0.00477816 -1.0488e-21)
(1.02227 -0.00661559 -2.95143e-21)
(1.0179 -0.00870992 -8.77183e-22)
(1.01281 -0.010515 4.51219e-22)
(1.00695 -0.0129015 3.86797e-22)
(1.0277 0.00213177 0)
(1.02912 0.00129503 -1.48766e-21)
(1.02954 0.000404266 -1.36715e-21)
(1.02894 -0.00056532 1.90919e-21)
(1.02734 -0.00157664 1.14056e-21)
(1.02474 -0.00269011 1.08897e-21)
(1.02125 -0.00379298 4.9296e-21)
(1.01685 -0.0050587 -3.62978e-21)
(1.01174 -0.00616751 8.50147e-22)
(1.00586 -0.00762205 0)
(1.02729 0.000699699 0)
(1.02868 0.000508007 7.32203e-22)
(1.02908 0.000290267 -7.04068e-22)
(1.02845 3.16786e-05 6.70296e-22)
(1.02683 -0.000258705 0)
(1.02422 -0.000603069 -1.0945e-21)
(1.02072 -0.000965257 9.70491e-22)
(1.01631 -0.00140465 8.76977e-22)
(1.01117 -0.00181465 0)
(1.00527 -0.00236569 0)
(0.834497 0.251024 0)
(0.824178 0.277498 -4.52359e-20)
(0.818426 0.309559 0)
(0.814081 0.348402 -1.48269e-19)
(0.809403 0.394286 5.63664e-20)
(0.803159 0.447877 1.69458e-21)
(0.790462 0.506358 4.78185e-20)
(0.752197 0.553013 -6.13635e-21)
(0.636484 0.533876 0)
(0.346357 0.309409 4.9031e-20)
(0.873213 0.251206 8.35414e-20)
(0.867841 0.281115 4.52345e-20)
(0.868508 0.312494 -4.28145e-20)
(0.869838 0.350799 4.97961e-20)
(0.870949 0.396323 -4.26833e-20)
(0.871132 0.449055 6.0716e-21)
(0.864476 0.5055 -4.97872e-20)
(0.828773 0.547613 -9.78612e-20)
(0.704746 0.52187 -2.58256e-20)
(0.380955 0.295185 -7.16637e-20)
(0.913899 0.246919 -3.71238e-20)
(0.913708 0.276908 3.8117e-20)
(0.918844 0.307583 4.28131e-20)
(0.924718 0.345323 4.37238e-20)
(0.931232 0.390043 4.44168e-20)
(0.937444 0.44112 4.4632e-20)
(0.935871 0.494298 7.02263e-21)
(0.90093 0.530242 4.22231e-20)
(0.766391 0.497403 1.62579e-20)
(0.409101 0.273174 -1.73555e-20)
(0.955866 0.238963 7.44701e-20)