/*--------------------------------*- C++ -*----------------------------------*\
| =========                 |                                                 |
| \\      /  F ield         | OpenFOAM: The Open Source CFD Toolbox           |
|  \\    /   O peration     | Version:  4.1                                   |
|   \\  /    A nd           | Web:      www.OpenFOAM.org                      |
|    \\/     M anipulation  |                                                 |
\*---------------------------------------------------------------------------*/
FoamFile
{
    version     2.0;
    format      ascii;
    class       volScalarField;
    location    "3.4";
    object      p;
}
// * * * * * * * * * * * * * * * * * * * * * * * * * * * * * * * * * * * * * //

dimensions      [0 2 -2 0 0 0 0];

internalField   nonuniform List<scalar> 
2000
(
-0.0201211
-0.0104172
-0.00257861
0.00710511
0.0197046
0.0347873
0.0512788
0.0680228
0.0841911
0.0975607
-0.0345932
-0.0232252
-0.0135898
-0.00130763
0.0144917
0.0328153
0.0521441
0.0710912
0.0885742
0.10317
-0.0487869
-0.0356488
-0.0237118
-0.00809541
0.0115802
0.0335655
0.0559046
0.0771178
0.0962415
0.112659
-0.0620921
-0.0470748
-0.0322408
-0.0125421
0.0115637
0.0374395
0.062775
0.0861287
0.106732
0.124377
-0.0737016
-0.056698
-0.0383126
-0.0138437
0.0150497
0.04484
0.0730264
0.0983417
0.120281
0.139083
-0.0826244
-0.0635358
-0.0409475
-0.0111736
0.0226115
0.0561254
0.0868757
0.113881
0.136964
0.156745
-0.0877268
-0.0664699
-0.0391278
-0.00375225
0.0347567
0.0716167
0.10455
0.13295
0.156993
0.177609
-0.0878027
-0.0643242
-0.0318797
0.00909033
0.0518939
0.0915667
0.126226
0.155691
0.180501
0.201775
-0.0816677
-0.0559874
-0.0183199
0.027886
0.074324
0.11616
0.152031
0.182197
0.207536
0.229221
-0.0682573
-0.0404855
0.0022515
0.0529997
0.102229
0.145506
0.182044
0.212503
0.238037
0.259764
0.0809427
0.0806745
0.0838069
0.0891963
0.0962797
0.104505
0.113137
0.121469
0.128868
0.134798
0.078257
0.0782013
0.0813309
0.0866068
0.0935546
0.101641
0.110195
0.118523
0.126031
0.132164
0.0730429
0.0734324
0.0765597
0.0816558
0.0883603
0.0962289
0.104659
0.113001
0.120721
0.127264
0.0656366
0.0666731
0.069839
0.0747437
0.0811825
0.0888277
0.0971619
0.105587
0.113624
0.120787
0.0564317
0.0582981
0.0615999
0.0663683
0.0726107
0.0801263
0.0884898
0.0971413
0.105614
0.113587
0.0457915
0.0486814
0.052235
0.0570063
0.0632268
0.0708243
0.0794499
0.0885533
0.0976163
0.106548
0.0340538
0.0380838
0.042061
0.0470538
0.0535361
0.0615445
0.0707643
0.0806094
0.0904647
0.100456
0.0214466
0.026745
0.0313166
0.0368208
0.0439607
0.0528269
0.0630587
0.0739624
0.0848389
0.095893
0.00812266
0.014791
0.0201722
0.0265649
0.0348794
0.0451758
0.056945
0.0693121
0.0815107
0.0932522
-0.00579466
0.00234651
0.00879575
0.0165486
0.0266616
0.039041
0.0529481
0.0673588
0.0814547
0.0933125
0.138761
0.141521
0.142926
0.142762
0.141002
0.137741
0.133104
0.127227
0.120257
0.112344
0.103635
0.0942678
0.0843624
0.0740246
0.0633413
0.0523866
0.0412032
0.0298788
0.0182539
0.00695082
0.135895
0.13893
0.140796
0.141008
0.13954
0.136527
0.132111
0.126426
0.119616
0.111836
0.103236
0.0939559
0.0841205
0.0738375
0.0631962
0.0522734
0.0411128
0.0298072
0.0181928
0.0069126
0.130562
0.134104
0.136823
0.137731
0.136806
0.134264
0.130265
0.12494
0.118432
0.110901
0.102505
0.0933904
0.0836859
0.0735047
0.062941
0.0520757
0.0409566
0.0296795
0.0180927
0.00680105
0.123524
0.127712
0.131537
0.133347
0.133141
0.131229
0.127793
0.122953
0.116853
0.10966
0.101541
0.0926501
0.0831226
0.0730782
0.0626174
0.0518273
0.0407608
0.0295171
0.0179643
0.00665015
0.115759
0.120622
0.125627
0.128407
0.128992
0.127796
0.125004
0.120721
0.11509
0.108288
0.10049
0.0918566
0.0825318
0.0726422
0.0622954
0.0515852
0.0405717
0.0293566
0.017835
0.00648262
0.108298
0.113787
0.119851
0.123523
0.124863
0.124379
0.122239
0.118522
0.113372
0.106973
0.0995083
0.0911421
0.0820247
0.0722901
0.0620527
0.0514137
0.040441
0.029238
0.0177332
0.00631989
0.10207
0.108123
0.114969
0.119315
0.121272
0.121413
0.119855
0.116648
0.111937
0.105912
0.0987557
0.0906369
0.0817094
0.0721121
0.0619652
0.0513756
0.0404202
0.0292017
0.0176873
0.00618256
0.0976761
0.104216
0.111462
0.116155
0.118515
0.119141
0.118072
0.115307
0.110982
0.105281
0.098387
0.0904716
0.0816924
0.072193
0.0620989
0.0515218
0.040547
0.0292746
0.0177115
0.00607986
0.0949666
0.10181
0.109133
0.113971
0.116631
0.1176
0.116918
0.114559
0.11061
0.105227
0.0985828
0.0908471
0.0821815
0.0727354
0.0626425
0.0520212
0.0409669
0.0295752
0.0178883
0.00604986
0.0952141
0.102341
0.109468
0.114307
0.11696
0.117815
0.117079
0.114776
0.110948
0.10571
0.0992054
0.0915849
0.0829968
0.0735836
0.0634771
0.0527962
0.0416438
0.0301102
0.0182609
0.0061516
0.10743
0.109756
0.115175
0.119029
0.120625
0.120528
0.11903
0.116142
0.111868
0.106292
0.0995391
0.0917424
0.0830331
0.0735393
0.0633842
0.0526774
0.0415249
0.0299973
0.0181962
0.00609461
0.119587
0.11865
0.121836
0.124088
0.124159
0.122645
0.11998
0.116201
0.111272
0.10524
0.0982001
0.0902578
0.0815157
0.0720748
0.0620366
0.0514902
0.0405327
0.0292134
0.0176655
0.00580892
0.130894
0.127715
0.128682
0.129171
0.127792
0.125033
0.121341
0.116754
0.111214
0.104737
0.0973934
0.0892668
0.0804397
0.0709934
0.0610131
0.0505721
0.0397618
0.0286126
0.0172857
0.00562882
0.141743
0.136703
0.135611
0.134366
0.131617
0.127724
0.123077
0.117716
0.111574
0.104647
0.096984
0.0886486
0.0797053
0.070218
0.060258
0.0498836
0.039181
0.0281612
0.0170053
0.00549297
0.151894
0.145329
0.142384
0.139522
0.135497
0.130559
0.125029
0.118937
0.112215
0.104845
0.0968569
0.0882973
0.0792151
0.0696598
0.05969
0.0493511
0.0387234
0.0278002
0.0167771
0.0053801
0.161218
0.153435
0.148858
0.14453
0.139344
0.133457
0.12712
0.120349
0.113079
0.105281
0.09697
0.0881781
0.0789414
0.0692967
0.0592923
0.0489615
0.0383795
0.0275236
0.0166008
0.00529264
0.169683
0.160926
0.154943
0.14932
0.143094
0.136354
0.129285
0.121891
0.114108
0.105902
0.0972767
0.0882508
0.07885
0.0691008
0.0590422
0.0486974
0.0381364
0.0273226
0.0164711
0.00522705
0.177291
0.167762
0.160588
0.153838
0.146695
0.139194
0.131466
0.123505
0.115248
0.106659
0.0977311
0.0884746
0.0789057
0.069042
0.058915
0.0485385
0.0379782
0.0271851
0.0163804
0.00517928
0.184083
0.173941
0.165769
0.15805
0.150103
0.141929
0.133614
0.125141
0.116451
0.107505
0.0982917
0.0888123
0.0790757
0.0690923
0.0588869
0.0484656
0.0378899
0.0271004
0.0163221
0.00514627
0.190112
0.179479
0.170475
0.161929
0.153287
0.144523
0.135687
0.126756
0.117673
0.108401
0.0989214
0.0892301
0.0793301
0.0692256
0.058936
0.0484608
0.0378576
0.0270582
0.0162899
0.0051253
0.195432
0.184402
0.174706
0.16546
0.156221
0.146944
0.137651
0.128314
0.11888
0.109311
0.0995869
0.0896976
0.0796416
0.0694182
0.0590422
0.0485075
0.0378684
0.0270491
0.0162784
0.00511384
0.200091
0.18874
0.17847
0.168636
0.158887
0.149168
0.139478
0.129784
0.120039
0.110205
0.100259
0.0901878
0.0799859
0.0696487
0.0591872
0.0485908
0.0379105
0.0270647
0.0162823
0.00510968
0.204133
0.19252
0.181777
0.171452
0.161274
0.151177
0.141145
0.131143
0.121126
0.111057
0.100913
0.0906775
0.0803418
0.0698983
0.059355
0.0486972
0.0379735
0.0270972
0.016297
0.00511082
0.207594
0.19577
0.184639
0.173909
0.163372
0.152957
0.142635
0.132369
0.122117
0.111845
0.101528
0.0911463
0.0806907
0.0701506
0.0595313
0.048815
0.0380482
0.02714
0.0163185
0.00511551
0.210507
0.198514
0.187069
0.176008
0.165175
0.154497
0.143933
0.133446
0.122996
0.112551
0.102085
0.0915776
0.0810172
0.0703916
0.059704
0.0489341
0.0381265
0.0271872
0.0163433
0.00512226
0.2129
0.200772
0.189077
0.177751
0.166682
0.15579
0.145029
0.134361
0.123748
0.11316
0.10257
0.0919571
0.0813082
0.0706095
0.0598629
0.049046
0.0382018
0.0272339
0.0163683
0.0051298
0.214795
0.202562
0.190674
0.179143
0.167889
0.156831
0.145915
0.135104
0.124363
0.113661
0.102971
0.0922737
0.0815531
0.070795
0.0599997
0.0491436
0.0382685
0.027276
0.0163913
0.00513709
0.216206
0.203897
0.191866
0.180184
0.168795
0.157614
0.146584
0.135667
0.12483
0.114043
0.10328
0.0925185
0.0817438
0.0709404
0.0601079
0.0492216
0.0383223
0.0273106
0.0164102
0.00514345
0.217157
0.204789
0.19266
0.180878
0.169399
0.158138
0.147033
0.136046
0.125145
0.114302
0.103489
0.0926853
0.0818743
0.0710404
0.0601827
0.0492759
0.0383599
0.0273352
0.0164235
0.00514996
0.217666
0.205256
0.193068
0.18123
0.169704
0.158401
0.147258
0.136236
0.125304
0.114433
0.103595
0.0927696
0.0819404
0.0710913
0.0602207
0.049304
0.0383783
0.0273496
0.0164265
0.00516306
0.277669
0.247822
0.22082
0.196857
0.17601
0.158219
0.143395
0.131329
0.121929
0.112494
0.292811
0.264128
0.238097
0.214768
0.194233
0.176346
0.161242
0.148092
0.137743
0.126256
0.306032
0.278556
0.253478
0.230735
0.210452
0.192332
0.176733
0.16246
0.151212
0.13916
0.317508
0.291031
0.266699
0.244407
0.224327
0.206067
0.190181
0.175414
0.163639
0.151406
0.327458
0.301814
0.278107
0.256223
0.236371
0.218139
0.202151
0.187217
0.174916
0.162515
0.336117
0.3112
0.288051
0.266563
0.246952
0.22883
0.212762
0.197723
0.184927
0.172407
0.343675
0.319401
0.296752
0.275636
0.25625
0.238256
0.222113
0.207016
0.193851
0.18123
0.350278
0.326575
0.304372
0.283596
0.264417
0.24656
0.230375
0.215259
0.201826
0.189084
0.356046
0.33285
0.311045
0.290582
0.271597
0.25388
0.237683
0.222558
0.208923
0.196052
0.361077
0.338332
0.316885
0.296708
0.277906
0.260325
0.244134
0.229003
0.215212
0.202218
0.365451
0.343108
0.321985
0.302068
0.283438
0.265982
0.24981
0.234674
0.220762
0.207653
0.369235
0.347252
0.326419
0.306738
0.288269
0.270927
0.254782
0.239642
0.22563
0.212413
0.372483
0.350822
0.330252
0.310784
0.292463
0.275224
0.259109
0.243964
0.229867
0.216546
0.375241
0.353867
0.333533
0.314257
0.296071
0.278926
0.26284
0.247687
0.233514
0.220091
0.377552
0.356431
0.336306
0.3172
0.299138
0.282075
0.266016
0.250852
0.236607
0.223084
0.379435
0.358543
0.338603
0.31965
0.301698
0.284707
0.26867
0.253491
0.239177
0.225552
0.380918
0.360222
0.340449
0.321631
0.303777
0.286847
0.270827
0.25563
0.241247
0.22752
0.38201
0.361491
0.341867
0.323167
0.305397
0.288518
0.272509
0.257287
0.242834
0.229002
0.382738
0.362373
0.342882
0.324288
0.306591
0.289754
0.27375
0.258497
0.243971
0.230027
0.383068
0.362836
0.343459
0.324957
0.307327
0.290528
0.27453
0.259254
0.244666
0.23062
0.673075
0.670161
0.661751
0.649603
0.634163
0.614474
0.588711
0.555475
0.517642
0.498135
0.634131
0.627195
0.613804
0.597719
0.57858
0.554526
0.52352
0.484419
0.440457
0.417066
0.592733
0.581921
0.564923
0.545531
0.522719
0.494263
0.45819
0.413737
0.364278
0.337644
0.547762
0.534314
0.515066
0.493086
0.466978
0.43447
0.393802
0.344786
0.290752
0.261761
0.501976
0.486376
0.465334
0.441112
0.412092
0.376034
0.331365
0.278575
0.221578
0.191203
0.456882
0.439343
0.416748
0.390553
0.358999
0.319941
0.272008
0.215666
0.159153
0.127253
0.41309
0.393875
0.370017
0.342204
0.308565
0.267117
0.216702
0.159011
0.103379
0.0708386
0.371136
0.350517
0.325726
0.296729
0.26151
0.218416
0.166759
0.108962
0.0549845
0.0227649
0.33144
0.309744
0.284497
0.254611
0.218373
0.174467
0.122606
0.0659093
0.0147248
-0.0164586
0.29355
0.272073
0.246644
0.216282
0.179618
0.135651
0.084595
0.0302794
-0.0170663
-0.0467145
0.937629
0.942457
0.948909
0.957054
0.96687
0.978199
0.99056
1.00268
1.01393
1.03077
0.932984
0.937226
0.943246
0.95092
0.96014
0.970733
0.982201
0.993245
1.00323
1.01922
0.923669
0.926775
0.931949
0.938693
0.946734
0.955869
0.965551
0.974443
0.982064
0.996195
0.909651
0.911139
0.915097
0.920479
0.926795
0.933794
0.940859
0.946602
0.95079
0.962183
0.890917
0.890388
0.892816
0.896447
0.900534
0.904778
0.908469
0.910158
0.909931
0.917839
0.867453
0.864598
0.865256
0.866808
0.868237
0.869191
0.868848
0.865703
0.860215
0.864027
0.839375
0.833992
0.832727
0.83193
0.830328
0.827536
0.822612
0.813994
0.802566
0.801833
0.806422
0.798503
0.795397
0.792149
0.787274
0.780415
0.770508
0.755954
0.738104
0.732563
0.769101
0.758806
0.75404
0.748124
0.739708
0.728555
0.713419
0.69266
0.668122
0.657716
0.724566
0.715133
0.709427
0.700628
0.688519
0.672969
0.652462
0.625387
0.594102
0.578972
0.996879
0.99075
0.984869
0.979133
0.973494
0.967987
0.962663
0.957564
0.952732
0.948207
0.944043
0.940326
0.937112
0.934455
0.932421
0.931082
0.930516
0.930798
0.932011
0.934219
0.996829
0.990612
0.98463
0.978781
0.973028
0.967404
0.96196
0.956734
0.951765
0.947089
0.942773
0.938887
0.935483
0.932612
0.930335
0.928719
0.927835
0.927752
0.928548
0.930242
0.996741
0.990334
0.984137
0.978067
0.972088
0.966232
0.960543
0.955057
0.949809
0.944835
0.940221
0.936006
0.932225
0.928926
0.926164
0.923994
0.922473
0.921651
0.921595
0.922244
0.996607
0.989908
0.983391
0.976992
0.97068
0.964484
0.958443
0.95259
0.946949
0.941506
0.936424
0.931705
0.927359
0.923421
0.919933
0.91693
0.914447
0.912498
0.911127
0.91015
0.996423
0.989334
0.982391
0.975554
0.968797
0.962137
0.955601
0.949209
0.942981
0.937071
0.931413
0.926013
0.920906
0.916117
0.911664
0.907551
0.903781
0.900312
0.897167
0.89394
0.99619
0.988608
0.981136
0.973754
0.966441
0.959208
0.952082
0.945086
0.938204
0.931596
0.92518
0.918938
0.912892
0.907046
0.901388
0.895885
0.890499
0.885104
0.879713
0.873572
0.995905
0.987733
0.979641
0.971629
0.96368
0.9558
0.947978
0.940093
0.932545
0.925138
0.917804
0.910552
0.903384
0.896275
0.889176
0.882003
0.874675
0.866942
0.858847
0.849097
0.995563
0.986684
0.97784
0.969056
0.960312
0.951545
0.942804
0.934395
0.926012
0.917613
0.909211
0.9008
0.89234
0.883763
0.874978
0.865831
0.856189
0.845627
0.834289
0.820154
0.995217
0.985633
0.976044
0.966385
0.956723
0.947195
0.937804
0.928399
0.918942
0.90943
0.899842
0.890131
0.880225
0.870015
0.85937
0.848055
0.835904
0.822224
0.80734
0.787895
0.994673
0.984003
0.97334
0.962795
0.952321
0.941844
0.931344
0.920803
0.910182
0.899436
0.888506
0.877309
0.865726
0.85359
0.840693
0.826676
0.811291
0.7935
0.774055
0.747797
0.994397
0.983182
0.971954
0.960711
0.949426
0.938077
0.926646
0.915097
0.903375
0.891412
0.879122
0.866395
0.853081
0.838972
0.823816
0.807198
0.788729
0.767279
0.742311
0.709199
0.994155
0.982455
0.970717
0.95893
0.947084
0.935152
0.923099
0.910877
0.898426
0.885671
0.87252
0.858853
0.844517
0.829308
0.812979
0.795148
0.775471
0.753161
0.728043
0.698894
0.993927
0.981758
0.969526
0.957227
0.944852
0.932367
0.919727
0.906881
0.893766
0.880305
0.866407
0.851951
0.836795
0.820749
0.803599
0.785039
0.764805
0.742432
0.717737
0.690119
0.993702
0.981069
0.968347
0.955541
0.942642
0.92961
0.916396
0.902947
0.889198
0.875074
0.860483
0.845312
0.829429
0.812669
0.794847
0.775729
0.755104
0.732666
0.708203
0.681324
0.99348
0.980394
0.967195
0.953896
0.940491
0.926938
0.913183
0.899172
0.884842
0.870117
0.854911
0.83912
0.822624
0.805282
0.78694
0.767414
0.746535
0.724088
0.699911
0.673747
0.993266
0.979742
0.966085
0.952316
0.938432
0.92439
0.910134
0.895608
0.880751
0.865492
0.84975
0.833432
0.816432
0.798631
0.7799
0.760097
0.73909
0.716728
0.692902
0.66741
0.99306
0.97912
0.965029
0.950816
0.936483
0.921985
0.907267
0.892272
0.876943
0.861213
0.845008
0.828245
0.810832
0.79267
0.773654
0.753672
0.732625
0.710407
0.686937
0.662047
0.992866
0.978533
0.964035
0.949407
0.934656
0.919738
0.904598
0.88918
0.87343
0.857287
0.840684
0.823547
0.805799
0.787356
0.768133
0.748044
0.727014
0.704967
0.681842
0.657505
0.992684
0.977983
0.963108
0.948096
0.932961
0.917661
0.902138
0.886342
0.870219
0.853717
0.836773
0.819325
0.801305
0.782645
0.763276
0.743133
0.722157
0.700297
0.677504
0.653678
0.992515
0.977476
0.962253
0.946891
0.931407
0.91576
0.899895
0.883761
0.867313
0.850499
0.833267
0.81556
0.797322
0.778497
0.759029
0.738868
0.717971
0.696303
0.673828
0.650469
0.992361
0.977012
0.961474
0.945795
0.929996
0.914039
0.897869
0.88144
0.864707
0.847627
0.830151
0.812231
0.793819
0.77487
0.755338
0.735187
0.714382
0.692905
0.670726
0.647793
0.992222
0.976594
0.960773
0.944811
0.928732
0.9125
0.896062
0.879375
0.862397
0.845089
0.827409
0.809315
0.790766
0.771725
0.752156
0.732031
0.711326
0.690031
0.668125
0.645574
0.992097
0.976222
0.960151
0.943939
0.927614
0.911142
0.894472
0.877562
0.860375
0.842875
0.825026
0.80679
0.788134
0.769025
0.749438
0.72935
0.708745
0.68762
0.665961
0.643748
0.991989
0.975897
0.959609
0.94318
0.926643
0.909963
0.893094
0.875995
0.858632
0.840973
0.822984
0.804634
0.785894
0.766739
0.747145
0.7271
0.70659
0.68562
0.66418
0.642261
0.991896
0.975619
0.959146
0.942534
0.925815
0.908962
0.891925
0.874668
0.857159
0.839368
0.821267
0.802827
0.784024
0.764835
0.745245
0.725242
0.70482
0.683986
0.662735
0.641068
0.991818
0.975387
0.958762
0.941998
0.925131
0.908133
0.89096
0.873574
0.855947
0.838052
0.819861
0.801351
0.782499
0.763289
0.743706
0.723744
0.703399
0.682681
0.661589
0.640132
0.991756
0.975203
0.958456
0.941571
0.924587
0.907476
0.890194
0.872707
0.854988
0.837011
0.818753
0.80019
0.781303
0.762079
0.742505
0.722579
0.702298
0.681675
0.660711
0.639422
0.99171
0.975066
0.958228
0.941254
0.924181
0.906985
0.889624
0.872062
0.854276
0.836239
0.817931
0.79933
0.78042
0.761187
0.741622
0.721724
0.701494
0.680944
0.660077
0.638915
0.99168
0.974977
0.95808
0.941045
0.923912
0.90666
0.889245
0.871635
0.853804
0.835729
0.817388
0.798763
0.779837
0.760599
0.741042
0.721164
0.700968
0.680469
0.659671
0.638597
0.991658
0.974932
0.95801
0.940943
0.923779
0.906498
0.889057
0.871422
0.853569
0.835474
0.817118
0.798481
0.779548
0.760308
0.740754
0.720887
0.700709
0.680237
0.659477
0.638461
0.671477
0.63196
0.592522
0.55056
0.507565
0.465185
0.423892
0.383987
0.3458
0.310282
0.666929
0.626036
0.586735
0.547626
0.507687
0.468193
0.429737
0.392542
0.357062
0.32393
0.65956
0.620214
0.58226
0.54586
0.508779
0.471754
0.435629
0.400694
0.367282
0.335747
0.65231
0.615301
0.57899
0.544661
0.509946
0.475052
0.440887
0.407813
0.37607
0.345973
0.645964
0.611113
0.576524
0.543894
0.511135
0.478085
0.445589
0.414075
0.383753
0.354871
0.640517
0.607553
0.574651
0.543478
0.512323
0.480853
0.449789
0.419597
0.390476
0.362629
0.635885
0.60457
0.573226
0.543313
0.51348
0.48335
0.453519
0.424453
0.396357
0.369404
0.631996
0.602108
0.572142
0.543318
0.514582
0.485584
0.456815
0.428717
0.4015
0.375323
0.62876
0.600097
0.571318
0.543428
0.515607
0.487566
0.459709
0.432447
0.405991
0.380491
0.626082
0.598465
0.570692
0.543593
0.516539
0.489306
0.462235
0.435695
0.409899
0.384992
0.623879
0.597146
0.570212
0.543777
0.517366
0.490816
0.464418
0.438505
0.413283
0.388898
0.622075
0.596081
0.569839
0.543952
0.518079
0.492105
0.466283
0.440912
0.416193
0.392266
0.620606
0.595219
0.569538
0.544099
0.51867
0.493181
0.467851
0.44295
0.418669
0.395146
0.619417
0.594516
0.569281
0.544201
0.519136
0.494051
0.469139
0.444643
0.420744
0.397573
0.618463
0.593938
0.569047
0.544245
0.519473
0.494721
0.470162
0.446012
0.422446
0.399605
0.617709
0.593455
0.568816
0.544222
0.519677
0.495196
0.47093
0.447072
0.423781
0.401181
0.617126
0.593047
0.568574
0.544124
0.519748
0.495479
0.471452
0.447842
0.4248
0.402457
0.616688
0.592694
0.568313
0.543948
0.519689
0.49558
0.471743
0.448336
0.425501
0.403353
0.616376
0.592369
0.567998
0.543659
0.519468
0.495475
0.471787
0.448547
0.425892
0.403928
0.616226
0.592129
0.567668
0.543265
0.519069
0.49513
0.471539
0.448424
0.425908
0.40409
)
;

boundaryField
{
    bottom
    {
        type            symmetryPlane;
    }
    right
    {
        type            fixedValue;
        value           uniform 0;
    }
    top
    {
        type            symmetryPlane;
    }
    left
    {
        type            fixedValue;
        value           uniform 1;
    }
    cylinder
    {
        type            zeroGradient;
    }
    defaultFaces
    {
        type            empty;
    }
}


// ************************************************************************* //
