/*--------------------------------*- C++ -*----------------------------------*\
| =========                 |                                                 |
| \\      /  F ield         | OpenFOAM: The Open Source CFD Toolbox           |
|  \\    /   O peration     | Version:  4.1                                   |
|   \\  /    A nd           | Web:      www.OpenFOAM.org                      |
|    \\/     M anipulation  |                                                 |
\*---------------------------------------------------------------------------*/
FoamFile
{
    version     2.0;
    format      ascii;
    class       volVectorField;
    location    "9.1";
    object      U;
}
// * * * * * * * * * * * * * * * * * * * * * * * * * * * * * * * * * * * * * //

dimensions      [0 1 -1 0 0 0 0];

internalField   nonuniform List<vector> 
2000
(
(-0.043299 0.0362825 2.62569e-20)
(-0.0296206 0.047719 0)
(0.0705361 0.0380601 3.94254e-20)
(0.244311 0.021759 1.70983e-20)
(0.474352 0.00816746 -3.18283e-20)
(0.733021 0.000620139 -4.21277e-20)
(0.99279 0.000580309 1.31333e-20)
(1.22386 0.00105957 0)
(1.44107 0.0111873 -1.07343e-20)
(1.57244 0.00905068 0)
(-0.0400153 0.0296945 -1.29227e-20)
(0.0115312 0.0265263 1.09863e-20)
(0.176935 0.0113048 -4.36241e-20)
(0.429216 -0.00163327 -5.62508e-20)
(0.727247 -0.00529209 -9.9625e-22)
(1.02432 -0.000428149 1.37012e-20)
(1.28562 0.0094135 -1.37315e-20)
(1.49607 0.0180996 -1.17291e-20)
(1.65506 0.0291267 1.07337e-20)
(1.74498 0.0242809 1.8445e-20)
(-0.0296267 0.0209561 1.47559e-20)
(0.0786551 0.00353179 -1.38214e-20)
(0.328203 -0.0107801 2.20345e-20)
(0.660817 -0.0120712 -1.67475e-21)
(1.00267 -0.0010194 1.69588e-20)
(1.29807 0.0155152 1.4985e-20)
(1.52386 0.0312708 1.32555e-20)
(1.68057 0.0416415 1.17288e-20)
(1.78052 0.0483419 9.76273e-21)
(1.84634 0.0439768 -8.35309e-21)
(-0.0093118 0.0102859 -7.0958e-22)
(0.177376 -0.018202 -1.54441e-20)
(0.522148 -0.0218269 0)
(0.915259 -0.00498756 1.90547e-20)
(1.26019 0.0198669 -1.9575e-20)
(1.51598 0.0424194 0)
(1.68441 0.0577536 0)
(1.78595 0.0644998 0)
(1.84803 0.0669994 -9.76329e-21)
(1.88078 0.060245 1.57698e-20)
(0.0239718 -0.0013612 3.91447e-20)
(0.310246 -0.0331154 7.68541e-23)
(0.744116 -0.0159359 1.4772e-20)
(1.1594 0.0194336 1.04797e-20)
(1.46891 0.0519032 1.00832e-20)
(1.66618 0.0736766 8.1145e-21)
(1.77941 0.0842854 0)
(1.84228 0.0865943 5.10858e-21)
(1.8786 0.0845965 -1.98082e-20)
(1.90572 0.0759873 2.55463e-20)
(0.0727965 -0.0117479 -6.32119e-20)
(0.4734 -0.0340559 2.00792e-21)
(0.969334 0.00898269 -2.93956e-20)
(1.36666 0.0570905 2.59545e-20)
(1.61988 0.0898389 -2.90078e-20)
(1.75977 0.106361 9.65208e-21)
(1.83135 0.111111 0)
(1.86928 0.108831 -5.10904e-21)
(1.89519 0.103066 3.9952e-21)
(1.91756 0.0942575 8.91924e-21)
(0.138131 -0.0176482 0)
(0.654391 -0.0157241 0)
(1.17393 0.0507091 -1.56189e-20)
(1.5263 0.103495 1.45398e-20)
(1.71978 0.13107 -9.34976e-21)
(1.81261 0.140271 8.77815e-21)
(1.85561 0.138853 1.02273e-20)
(1.88012 0.132234 -9.6673e-21)
(1.90045 0.123385 -4.94117e-21)
(1.92208 0.113758 2.35707e-21)
(0.218581 -0.0154854 1.36313e-20)
(0.835298 0.0230044 0)
(1.34379 0.105417 -7.24143e-21)
(1.63946 0.155607 2.72714e-20)
(1.77912 0.17455 -1.62133e-20)
(1.83675 0.175488 0)
(1.862 0.16803 0)
(1.87944 0.157242 0)
(1.89821 0.145544 -2.78999e-21)
(1.91981 0.135102 2.65211e-21)
(0.309644 -0.00233992 -7.00968e-21)
(0.999391 0.0794003 -3.26648e-22)
(1.47401 0.169412 -8.96013e-21)
(1.71179 0.211411 3.181e-21)
(1.80717 0.219635 3.00779e-21)
(1.84033 0.212058 3.7025e-21)
(1.85522 0.198705 0)
(1.86969 0.183825 -2.96132e-22)
(1.88801 0.16951 -1.43962e-23)
(1.90964 0.157306 5.74207e-23)
(0.404338 0.0232549 0)
(1.13576 0.148991 -5.87495e-21)
(1.56473 0.239337 0)
(1.74963 0.269385 -1.89014e-21)
(1.81087 0.26578 -1.7436e-21)
(1.82798 0.249694 -1.50224e-21)
(1.83744 0.230524 0)
(1.85099 0.21152 2.96163e-22)
(1.8697 0.194464 -4.60211e-23)
(1.89182 0.179863 -6.17571e-22)
(-0.0095375 0.0091596 0)
(-0.0381517 0.0169749 -1.79654e-21)
(-0.0787848 0.0197471 0)
(-0.118312 0.0203771 -2.44674e-21)
(-0.154384 0.0201375 -8.00868e-22)
(-0.18701 0.0196501 1.52066e-21)
(-0.216524 0.0192293 -1.43209e-21)
(-0.243431 0.0190373 1.42161e-21)
(-0.26844 0.0192002 -9.28315e-24)
(-0.29259 0.019838 1.32159e-21)
(-0.0111097 0.0263057 -5.64388e-21)
(-0.0391062 0.0490978 3.54375e-21)
(-0.0766159 0.0573753 -3.48578e-21)
(-0.112128 0.0592605 1.61955e-21)
(-0.143605 0.0584382 7.93809e-21)
(-0.171016 0.0567516 -2.99396e-21)
(-0.194616 0.055159 0)
(-0.214773 0.0541939 -1.41683e-21)
(-0.23198 0.0542762 -1.37764e-21)
(-0.2477 0.055807 0)
(-0.0139859 0.0401809 3.76429e-21)
(-0.0410589 0.0760838 0)
(-0.0729955 0.0896247 1.06576e-20)
(-0.101244 0.0927264 -1.3516e-20)
(-0.124367 0.0910877 3.20406e-21)
(-0.142356 0.0876563 0)
(-0.155404 0.0840281 0)
(-0.163708 0.0812029 0)
(-0.167252 0.0800262 1.14423e-20)
(-0.167728 0.0813724 -1.08745e-20)
(-0.0176734 0.0494956 0)
(-0.0440095 0.095572 -7.92179e-21)
(-0.0690236 0.113692 1.47974e-20)
(-0.0878643 0.117855 -6.94411e-21)
(-0.100025 0.115169 6.76603e-21)
(-0.105695 0.10943 -1.93422e-20)
(-0.105086 0.102735 -2.59494e-22)
(-0.0984116 0.0965088 1.18136e-20)
(-0.0850734 0.0921858 1.15684e-20)
(-0.0648686 0.0919783 -1.65104e-20)
(-0.021695 0.0540571 8.50359e-21)
(-0.047856 0.106493 -1.66638e-20)
(-0.0656147 0.127838 -1.05546e-22)
(-0.073837 0.132598 1.41842e-22)
(-0.0732006 0.128658 6.92564e-21)
(-0.0642805 0.120341 -1.96353e-20)
(-0.0473575 0.109987 0)
(-0.0228586 0.0990838 -6.03853e-21)
(0.0098114 0.0895121 5.76548e-21)
(0.055393 0.0858191 -2.27149e-20)
(-0.0257811 0.0546241 -2.64813e-22)
(-0.0523242 0.109086 1.71027e-20)
(-0.0629177 0.131498 7.85131e-21)
(-0.0595146 0.135823 7.72513e-21)
(-0.0439522 0.130237 6.94846e-21)
(-0.0172257 0.119344 6.60883e-21)
(0.020333 0.105557 0)
(0.0681742 0.0902045 6.03806e-21)
(0.124674 0.0746264 1.7019e-20)
(0.207101 0.065421 -5.70639e-21)
(-0.0299432 0.0525269 4.10769e-23)
(-0.0568301 0.104687 9.0727e-21)
(-0.0596273 0.125282 0)
(-0.0424786 0.127434 -1.49004e-20)
(-0.00791075 0.119371 1.42285e-20)
(0.0428406 0.105829 0)
(0.109357 0.0893999 0)
(0.191507 0.071892 0)
(0.277861 0.0518454 -1.14115e-20)
(0.417019 0.0381794 -2.22248e-20)
(-0.0342713 0.0491347 -1.01512e-20)
(-0.0601077 0.0951274 9.50888e-21)
(-0.0522311 0.11075 1.73577e-20)
(-0.0160965 0.108656 3.35203e-22)
(0.0456638 0.0970968 1.44199e-20)
(0.13144 0.0809187 1.33902e-20)
(0.239423 0.062858 1.25512e-20)
(0.369744 0.0465736 1.17878e-20)
(0.492206 0.0257796 1.14099e-20)
(0.70206 0.0140057 -1.02071e-20)
(-0.0385873 0.0453227 -3.30653e-20)
(-0.0596183 0.0820064 -9.3955e-21)
(-0.0342911 0.090003 -3.48314e-20)
(0.0310999 0.0821141 -1.57391e-20)
(0.133599 0.066908 2.84078e-22)
(0.269283 0.0493563 -1.32174e-20)
(0.431624 0.0322793 1.26449e-20)
(0.61515 0.0200377 -1.17861e-20)
(0.780238 0.00422816 1.12135e-20)
(1.03724 0.0018357 -2.13527e-20)
(-0.0421008 0.041221 2.23849e-20)
(-0.0512633 0.0661828 0)
(0.00322767 0.0651211 1.80647e-20)
(0.113563 0.0515994 -9.62754e-24)
(0.27352 0.0347536 4.47884e-22)
(0.471258 0.0193978 1.35471e-20)
(0.691414 0.00867986 -3.81151e-20)
(0.912924 0.00208211 0)
(1.12097 -0.0017182 -1.12116e-20)
(1.35372 0.0049229 0)
(-0.31655 0.0207408 0)
(-0.342087 0.0202772 -1.40161e-21)
(-0.366735 0.0195973 2.8483e-21)
(-0.390663 0.0188344 -1.26236e-21)
(-0.413774 0.0179519 0)
(-0.435884 0.0169157 1.53176e-21)
(-0.456772 0.0156894 -1.53935e-21)
(-0.476166 0.0142345 0)
(-0.49374 0.0125117 0)
(-0.509113 0.0104842 1.96192e-22)
(-0.521826 0.00812158 0)
(-0.531302 0.00539866 0)
(-0.536928 0.0022823 0)
(-0.538362 -0.00123979 0)
(-0.535306 -0.00505879 -2.63147e-22)
(-0.527538 -0.00903822 2.64511e-22)
(-0.514362 -0.0129371 0)
(-0.493801 -0.016582 -4.98693e-23)
(-0.465385 -0.0200228 5.01317e-23)
(-0.441498 -0.0229301 0)
(-0.26445 0.0582488 0)
(-0.286152 0.0570173 3.56821e-22)
(-0.306673 0.0551168 0)
(-0.326493 0.0529694 5.82087e-21)
(-0.345662 0.0504775 -5.64589e-21)
(-0.364009 0.047556 3.94615e-22)
(-0.381349 0.0441161 -3.16226e-21)
(-0.397464 0.0400566 6.76388e-21)
(-0.412099 0.0352703 -5.96317e-21)
(-0.424959 0.0296539 3.39962e-21)
(-0.4357 0.0231183 3.05748e-21)
(-0.443906 0.015587 -5.61648e-21)
(-0.449132 0.00697914 2.94606e-21)
(-0.451092 -0.00273844 1.60259e-21)
(-0.449411 -0.0133952 -1.26437e-21)
(-0.443941 -0.0246727 2.7021e-22)
(-0.434104 -0.0359412 2.2026e-22)
(-0.418154 -0.0465884 2.27254e-22)
(-0.394875 -0.0565092 -2.28355e-22)
(-0.373722 -0.0647656 2.48087e-23)
(-0.172694 0.0849958 -3.55725e-22)
(-0.187199 0.0832524 -3.5745e-22)
(-0.20039 0.0805512 -3.76678e-22)
(-0.212898 0.0774197 0)
(-0.225032 0.0737358 -7.11313e-21)
(-0.236623 0.0693929 5.55317e-21)
(-0.247524 0.0642716 0)
(-0.25759 0.0582507 -8.24704e-22)
(-0.266649 0.0512056 -4.06269e-22)
(-0.274508 0.0429989 5.72619e-21)
(-0.280956 0.0335114 -1.60555e-22)
(-0.285764 0.0226436 -7.23643e-21)
(-0.288703 0.0103168 -3.90305e-22)
(-0.289735 -0.00349282 -3.42021e-22)
(-0.288545 -0.0187914 -3.34143e-22)
(-0.285087 -0.0353105 7.52446e-22)
(-0.279062 -0.0523728 -6.85433e-22)
(-0.269333 -0.069017 -8.0361e-22)
(-0.25405 -0.0845656 -1.74414e-22)
(-0.237418 -0.097388 7.8472e-24)
(-0.0565298 0.0959303 -1.13375e-20)
(-0.0621632 0.0947465 -2.89526e-22)
(-0.0661696 0.0919733 7.22719e-23)
(-0.0695861 0.0883688 1.24015e-20)
(-0.0729245 0.0840695 1.20927e-21)
(-0.0760603 0.0789389 4.06121e-22)
(-0.0788408 0.0728 -1.26644e-20)
(-0.0811394 0.0655219 7.14122e-21)
(-0.0828701 0.0569974 6.85028e-21)
(-0.0839316 0.0471134 -7.27014e-21)
(-0.0841938 0.0357663 1.34827e-22)
(-0.0835202 0.0229069 7.97291e-21)
(-0.0817697 0.00851874 3.87062e-22)
(-0.0792469 -0.00741094 3.63427e-21)
(-0.0757896 -0.0249516 -2.54479e-21)
(-0.0714434 -0.0439271 -2.21252e-21)
(-0.0662893 -0.0639427 1.9379e-21)
(-0.0601767 -0.0842422 0)
(-0.0519761 -0.103561 3.58476e-22)
(-0.039533 -0.119464 3.33851e-23)
(0.0771814 0.0903603 2.253e-20)
(0.0817746 0.090811 -1.14642e-20)
(0.0857521 0.088457 1.22393e-20)
(0.091173 0.0848338 0)
(0.0968945 0.0804459 -8.11813e-22)
(0.102538 0.0751421 -1.3543e-20)
(0.108219 0.0686498 -1.0718e-21)
(0.114106 0.0608049 -1.51032e-22)
(0.120276 0.0515128 1.39842e-20)
(0.126753 0.040697 8.65624e-22)
(0.133596 0.0283049 0)
(0.140904 0.0143394 -8.37169e-22)
(0.14862 -0.00105106 0)
(0.156355 -0.0180893 -7.57942e-22)
(0.164243 -0.0365283 0)
(0.172183 -0.0561435 0)
(0.179749 -0.0766015 5.12336e-22)
(0.186885 -0.0975818 -6.62978e-22)
(0.193045 -0.117858 5.90939e-22)
(0.203211 -0.136134 -1.73721e-22)
(0.238564 0.0718862 0)
(0.251746 0.0740163 -7.59416e-22)
(0.261264 0.0722131 -2.52361e-20)
(0.273025 0.0687705 2.44389e-20)
(0.286019 0.0645846 -8.1831e-22)
(0.299069 0.0594462 0)
(0.312034 0.0529696 -1.38834e-20)
(0.325125 0.0449932 2.70754e-20)
(0.338427 0.0354507 -1.49495e-20)
(0.351933 0.02427 -8.86297e-22)
(0.365623 0.0115095 -8.79941e-22)
(0.379568 -0.00277633 -8.62653e-22)
(0.39321 -0.0187806 0)
(0.406389 -0.0362698 5.23418e-21)
(0.419334 -0.0548364 -1.21808e-20)
(0.431822 -0.0743064 5.43856e-21)
(0.443061 -0.0940988 -5.37082e-22)
(0.45374 -0.114102 -4.11304e-22)
(0.460733 -0.132372 1.76911e-22)
(0.472368 -0.151813 -1.76064e-22)
(0.45093 0.0470378 2.19535e-20)
(0.468019 0.0504586 0)
(0.479107 0.0485732 -7.742e-22)
(0.493054 0.0450066 1.58654e-21)
(0.509561 0.0409896 1.62898e-21)
(0.526752 0.0359528 8.31656e-22)
(0.544137 0.029415 8.4952e-22)
(0.561889 0.0213246 -1.31132e-20)
(0.580044 0.011647 1.57017e-20)
(0.598652 0.000429249 1.57663e-20)
(0.617532 -0.0124326 -1.31156e-20)
(0.63608 -0.0269758 1.69865e-21)
(0.654094 -0.0431409 -6.38722e-21)
(0.671788 -0.0604029 1.20353e-21)
(0.688652 -0.0784977 7.34207e-21)
(0.704722 -0.0972594 6.21197e-22)
(0.718652 -0.115735 -8.11113e-22)
(0.73235 -0.134356 9.35196e-22)
(0.74052 -0.149638 1.5666e-21)
(0.753797 -0.167693 8.55228e-23)
(0.729148 0.0246691 0)
(0.743809 0.0279958 -2.46958e-20)
(0.752481 0.0246035 2.53644e-20)
(0.764693 0.0202229 -7.91798e-22)
(0.780525 0.0159198 -1.60577e-21)
(0.797783 0.0103601 -8.30913e-22)
(0.81585 0.0031667 -1.6754e-21)
(0.834756 -0.00544927 0)
(0.854482 -0.0153828 -8.64526e-22)
(0.87473 -0.0267559 -8.64048e-22)
(0.895036 -0.0397481 -8.35509e-22)
(0.915169 -0.0542695 -1.64966e-21)
(0.934924 -0.0699049 0)
(0.953904 -0.0865034 0)
(0.971686 -0.103639 -6.88691e-22)
(0.988256 -0.12117 -5.60263e-21)
(1.00228 -0.137806 3.88368e-21)
(1.01563 -0.15452 -3.69711e-22)
(1.02346 -0.166943 -8.03169e-22)
(1.03475 -0.18207 2.32042e-22)
(1.05308 0.0134067 2.22886e-20)
(1.0618 0.0138466 0)
(1.06739 0.00761059 0)
(1.07718 0.00222922 -2.49798e-20)
(1.09029 -0.00325967 9.20021e-23)
(1.10484 -0.0102767 5.12761e-20)
(1.12058 -0.0185737 -2.49437e-20)
(1.13749 -0.0279627 0)
(1.15514 -0.0385673 0)
(1.17294 -0.0505438 0)
(1.19086 -0.0637266 4.30297e-22)
(1.20827 -0.0779505 1.18442e-21)
(1.22525 -0.0930402 1.17002e-20)
(1.24084 -0.108784 -1.12788e-20)
(1.25544 -0.124648 4.81616e-21)
(1.2678 -0.14057 -4.21114e-21)
(1.27853 -0.155149 0)
(1.28651 -0.16948 1.90167e-22)
(1.29196 -0.179456 2.26465e-22)
(1.29563 -0.19094 0)
(1.37345 0.00826734 -3.69547e-22)
(1.38337 0.000832008 -2.41577e-20)
(1.39115 -0.00607032 2.39067e-20)
(1.40012 -0.0105378 0)
(1.40935 -0.0160641 2.45185e-20)
(1.41899 -0.0230719 -4.90169e-20)
(1.42922 -0.0312425 2.44981e-20)
(1.4397 -0.0406419 0)
(1.45059 -0.0513394 1.24299e-20)
(1.46138 -0.0632051 -2.45572e-20)
(1.47241 -0.0761188 1.25183e-20)
(1.4825 -0.0899689 -3.76069e-22)
(1.49251 -0.104447 0)
(1.50042 -0.119365 -1.021e-20)
(1.50829 -0.134055 1.41661e-20)
(1.51252 -0.148572 -4.34199e-21)
(1.51744 -0.16144 -2.93339e-21)
(1.51657 -0.173739 2.0459e-21)
(1.51849 -0.181967 1.01359e-21)
(1.51137 -0.190453 0)
(1.69491 0.0112105 0)
(1.68505 0.00276773 0)
(1.67918 -0.00335404 0)
(1.67446 -0.00994601 0)
(1.67107 -0.0175466 0)
(1.66963 -0.0258955 0)
(1.67016 -0.0349183 0)
(1.67177 -0.0446004 0)
(1.67451 -0.0549462 0)
(1.67726 -0.0660204 0)
(1.68069 -0.0777889 0)
(1.683 -0.0902427 0)
(1.68588 -0.103037 0)
(1.68618 -0.116204 0)
(1.68755 -0.128984 0)
(1.68428 -0.141781 0)
(1.68384 -0.152938 0)
(1.67551 -0.16404 0)
(1.67413 -0.171292 0)
(1.65903 -0.179562 0)
(1.81832 0.0181537 0)
(1.81953 0.0114075 0)
(1.81873 0.004169 0)
(1.81653 -0.00442285 0)
(1.81511 -0.013684 0)
(1.8145 -0.0233309 0)
(1.81469 -0.0333183 0)
(1.81482 -0.0437036 0)
(1.81531 -0.0545241 0)
(1.81497 -0.0658689 0)
(1.81497 -0.0776128 0)
(1.81328 -0.0897859 0)
(1.81221 -0.10199 0)
(1.80807 -0.114362 0)
(1.80552 -0.126082 0)
(1.79776 -0.137695 0)
(1.79397 -0.147548 0)
(1.78137 -0.157281 0)
(1.7778 -0.163432 0)
(1.75886 -0.170292 0)
(1.89407 0.0198646 0)
(1.89803 0.0111017 0)
(1.89895 0.00249185 0)
(1.89855 -0.00616535 0)
(1.89843 -0.0151128 0)
(1.8986 -0.0244784 0)
(1.89921 -0.0342054 0)
(1.89926 -0.044306 0)
(1.89928 -0.0547346 0)
(1.89803 -0.0655542 0)
(1.89689 -0.0765727 0)
(1.8937 -0.0878673 0)
(1.89114 -0.098993 0)
(1.88524 -0.110182 0)
(1.88118 -0.120563 0)
(1.87168 -0.130826 0)
(1.8667 -0.139288 0)
(1.85264 -0.147733 0)
(1.84855 -0.152806 0)
(1.82855 -0.158757 0)
(1.94508 0.0205546 0)
(1.95069 0.0109893 0)
(1.95262 0.00203225 0)
(1.95268 -0.00679464 0)
(1.95283 -0.0157783 0)
(1.95316 -0.0250206 0)
(1.95385 -0.034483 0)
(1.95382 -0.0441892 0)
(1.95365 -0.0540573 0)
(1.95203 -0.064165 0)
(1.95048 -0.0743044 0)
(1.94677 -0.0846049 0)
(1.94373 -0.0946047 0)
(1.93733 -0.104618 0)
(1.9329 -0.113752 0)
(1.92312 -0.122816 0)
(1.91801 -0.130108 0)
(1.90406 -0.137554 0)
(1.90008 -0.141829 0)
(1.88067 -0.147297 0)
(1.9849 0.0198351 0)
(1.99122 0.0100445 0)
(1.99386 0.000739555 0)
(1.99437 -0.00815371 0)
(1.99468 -0.0169342 0)
(1.99501 -0.0258053 0)
(1.99564 -0.0347852 0)
(1.99549 -0.0439199 0)
(1.99517 -0.053109 0)
(1.99335 -0.0624355 0)
(1.99161 -0.0716839 0)
(1.98773 -0.0810136 0)
(1.98458 -0.0899669 0)
(1.97818 -0.0989056 0)
(1.97381 -0.106954 0)
(1.96432 -0.114974 0)
(1.95947 -0.121309 0)
(1.94622 -0.127918 0)
(1.94255 -0.131602 0)
(1.92437 -0.136614 0)
(2.02259 0.017883 0)
(2.02899 0.00826726 0)
(2.03202 -0.000900329 0)
(2.03281 -0.00961107 0)
(2.03316 -0.0180621 0)
(2.03335 -0.0264778 0)
(2.03378 -0.0349168 0)
(2.03341 -0.0434441 0)
(2.03289 -0.0519513 0)
(2.03088 -0.0605188 0)
(2.02898 -0.0689303 0)
(2.02501 -0.0773603 0)
(2.02183 -0.0853711 0)
(2.01554 -0.0933454 0)
(2.01134 -0.100449 0)
(2.00225 -0.107552 0)
(1.99773 -0.113085 0)
(1.98525 -0.118956 0)
(1.98191 -0.122154 0)
(1.96497 -0.126706 0)
(2.06231 0.0153489 0)
(2.06843 0.00625718 0)
(2.07151 -0.00252154 0)
(2.07232 -0.0108908 0)
(2.07255 -0.0189456 0)
(2.07247 -0.0268854 0)
(2.07256 -0.0347771 0)
(2.07186 -0.0426973 0)
(2.07104 -0.0505415 0)
(2.06877 -0.0583865 0)
(2.06666 -0.0660229 0)
(2.06254 -0.0736296 0)
(2.0593 -0.0807971 0)
(2.05305 -0.0879109 0)
(2.04895 -0.0941922 0)
(2.04016 -0.100489 0)
(2.0359 -0.105339 0)
(2.02401 -0.110553 0)
(2.02094 -0.113341 0)
(2.00497 -0.117448 0)
(2.10477 0.012801 0)
(2.11031 0.00434908 0)
(2.11317 -0.0039439 0)
(2.11385 -0.0118849 0)
(2.11387 -0.0194976 0)
(2.11343 -0.0269421 0)
(2.11311 -0.0342814 0)
(2.11199 -0.0415997 0)
(2.1108 -0.0488022 0)
(2.10819 -0.0559634 0)
(2.1058 -0.0628846 0)
(2.10145 -0.069741 0)
(2.09805 -0.0761553 0)
(2.09173 -0.0825021 0)
(2.08764 -0.0880658 0)
(2.07899 -0.0936502 0)
(2.07486 -0.0979139 0)
(2.06334 -0.10254 0)
(2.06044 -0.104981 0)
(2.04511 -0.10866 0)
(2.14899 0.0104462 0)
(2.1538 0.00264212 0)
(2.1563 -0.00510098 0)
(2.15677 -0.0125448 0)
(2.15652 -0.0196655 0)
(2.1557 -0.0265888 0)
(2.15496 -0.0333702 0)
(2.15337 -0.040095 0)
(2.15177 -0.0466784 0)
(2.14876 -0.0531918 0)
(2.14605 -0.05945 0)
(2.14139 -0.0656194 0)
(2.13778 -0.0713557 0)
(2.13128 -0.0770141 0)
(2.12711 -0.0819447 0)
(2.11843 -0.0868949 0)
(2.11436 -0.0906486 0)
(2.10299 -0.0947457 0)
(2.10018 -0.096886 0)
(2.08518 -0.100159 0)
(2.19369 0.00832645 0)
(2.19771 0.00118452 0)
(2.19979 -0.00594846 0)
(2.19998 -0.0128363 0)
(2.19945 -0.019423 0)
(2.19825 -0.0258038 0)
(2.19707 -0.0320235 0)
(2.19502 -0.0381627 0)
(2.19299 -0.0441463 0)
(2.18955 -0.0500415 0)
(2.1865 -0.0556782 0)
(2.18148 -0.0612112 0)
(2.17762 -0.0663291 0)
(2.17086 -0.0713625 0)
(2.16655 -0.0757265 0)
(2.15773 -0.0801058 0)
(2.15363 -0.0834087 0)
(2.14224 -0.0870261 0)
(2.13947 -0.0889025 0)
(2.12458 -0.0917956 0)
(2.23767 0.00649808 0)
(2.24091 4.74701e-05 0)
(2.24252 -0.00644061 0)
(2.2424 -0.0127369 0)
(2.24157 -0.0187621 0)
(2.23998 -0.024585 0)
(2.23838 -0.0302395 0)
(2.23586 -0.0357996 0)
(2.23341 -0.0411985 0)
(2.22954 -0.046499 0)
(2.22613 -0.0515468 0)
(2.22074 -0.0564835 0)
(2.2166 -0.0610302 0)
(2.20953 -0.0654891 0)
(2.20505 -0.069339 0)
(2.19601 -0.0731989 0)
(2.19184 -0.0760976 0)
(2.18031 -0.0792777 0)
(2.17754 -0.0809188 0)
(2.16259 -0.0834591 0)
(2.27988 0.00503158 0)
(2.28235 -0.000722888 0)
(2.28347 -0.00655501 0)
(2.28301 -0.01224 0)
(2.28187 -0.0176856 0)
(2.27991 -0.0229393 0)
(2.27791 -0.0280261 0)
(2.27494 -0.0330123 0)
(2.27208 -0.0378393 0)
(2.26779 -0.0425645 0)
(2.26403 -0.0470496 0)
(2.25826 -0.0514224 0)
(2.25384 -0.0554352 0)
(2.24645 -0.0593606 0)
(2.24178 -0.0627382 0)
(2.23246 -0.0661207 0)
(2.22819 -0.0686523 0)
(2.21645 -0.0714314 0)
(2.21365 -0.0728601 0)
(2.19854 -0.0750752 0)
(2.31932 0.00395426 0)
(2.32105 -0.00112024 0)
(2.32167 -0.00629293 0)
(2.32088 -0.011355 0)
(2.31945 -0.0162091 0)
(2.31713 -0.020886 0)
(2.31476 -0.0254037 0)
(2.31138 -0.029821 0)
(2.30815 -0.0340871 0)
(2.30347 -0.0382531 0)
(2.29938 -0.042197 0)
(2.29325 -0.046032 0)
(2.28856 -0.0495411 0)
(2.28084 -0.0529658 0)
(2.27598 -0.0559046 0)
(2.26638 -0.058844 0)
(2.262 -0.0610382 0)
(2.25001 -0.0634471 0)
(2.24716 -0.064682 0)
(2.23184 -0.0665977 0)
(2.35493 0.00324131 0)
(2.35601 -0.00116801 0)
(2.3562 -0.0056836 0)
(2.35511 -0.0101162 0)
(2.35343 -0.0143705 0)
(2.35082 -0.0184654 0)
(2.34814 -0.0224137 0)
(2.3444 -0.0262668 0)
(2.34086 -0.0299808 0)
(2.33582 -0.0336006 0)
(2.33146 -0.0370201 0)
(2.325 -0.0403379 0)
(2.32009 -0.0433666 0)
(2.31207 -0.0463166 0)
(2.30704 -0.0488425 0)
(2.29717 -0.0513661 0)
(2.29268 -0.053246 0)
(2.28044 -0.0553098 0)
(2.27755 -0.0563655 0)
(2.26199 -0.0580044 0)
(2.38574 0.00281615 0)
(2.38632 -0.00093981 0)
(2.38618 -0.00479948 0)
(2.38488 -0.00859682 0)
(2.38304 -0.0122439 0)
(2.38023 -0.0157517 0)
(2.37733 -0.0191292 0)
(2.37333 -0.0224199 0)
(2.36954 -0.0255871 0)
(2.36424 -0.0286687 0)
(2.35967 -0.031575 0)
(2.35296 -0.0343895 0)
(2.34787 -0.0369541 0)
(2.3396 -0.0394478 0)
(2.33443 -0.0415794 0)
(2.32433 -0.0437069 0)
(2.31975 -0.0452893 0)
(2.30729 -0.0470267 0)
(2.30437 -0.0479138 0)
(2.28858 -0.0492931 0)
(2.41103 0.002548 0)
(2.41129 -0.000559095 0)
(2.41098 -0.0037592 0)
(2.40959 -0.00691279 0)
(2.40771 -0.00994222 0)
(2.40481 -0.0128537 0)
(2.4018 -0.0156537 0)
(2.39765 -0.0183784 0)
(2.39373 -0.0209976 0)
(2.38826 -0.0235425 0)
(2.38357 -0.0259393 0)
(2.37668 -0.0282568 0)
(2.37148 -0.0303654 0)
(2.36303 -0.0324128 0)
(2.35778 -0.0341606 0)
(2.34749 -0.0359035 0)
(2.34286 -0.0371985 0)
(2.3302 -0.0386207 0)
(2.32727 -0.0393459 0)
(2.31129 -0.0404757 0)
(2.43057 0.00225907 0)
(2.4307 -0.000189824 0)
(2.43037 -0.00271424 0)
(2.42903 -0.00520578 0)
(2.42721 -0.0075988 0)
(2.42433 -0.00989704 0)
(2.42133 -0.0121054 0)
(2.41713 -0.0142526 0)
(2.41317 -0.0163144 0)
(2.40762 -0.0183158 0)
(2.40288 -0.0201983 0)
(2.39589 -0.0220166 0)
(2.39065 -0.0236687 0)
(2.38208 -0.0252714 0)
(2.37679 -0.026638 0)
(2.36637 -0.0280001 0)
(2.36172 -0.0290111 0)
(2.34892 -0.030122 0)
(2.34597 -0.0306877 0)
(2.32984 -0.0315715 0)
(2.44469 0.00179459 0)
(2.44482 2.8375e-05 0)
(2.44457 -0.00180115 0)
(2.44334 -0.00360409 0)
(2.44165 -0.00533228 0)
(2.43886 -0.00699249 0)
(2.43592 -0.00858721 0)
(2.43173 -0.0101381 0)
(2.4278 -0.0116255 0)
(2.42223 -0.0130696 0)
(2.4175 -0.0144255 0)
(2.41047 -0.0157357 0)
(2.40521 -0.0169233 0)
(2.39658 -0.0180769 0)
(2.39128 -0.0190572 0)
(2.38077 -0.0200371 0)
(2.37612 -0.0207612 0)
(2.36321 -0.0215604 0)
(2.36027 -0.0219648 0)
(2.34402 -0.0226009 0)
(2.45391 0.00122282 0)
(2.45409 0.000100451 0)
(2.45392 -0.0010288 0)
(2.45281 -0.00212047 0)
(2.45124 -0.00316148 0)
(2.44853 -0.00416409 0)
(2.44566 -0.00512622 0)
(2.44151 -0.00606436 0)
(2.43761 -0.00696117 0)
(2.43206 -0.00783524 0)
(2.42734 -0.00865137 0)
(2.4203 -0.00944495 0)
(2.41505 -0.0101577 0)
(2.40639 -0.0108574 0)
(2.40108 -0.0114433 0)
(2.39052 -0.0120394 0)
(2.38587 -0.0124695 0)
(2.37289 -0.0129573 0)
(2.36995 -0.0131953 0)
(2.35362 -0.0135826 0)
(2.45843 0.000612782 0)
(2.45866 0.000167845 0)
(2.45859 -0.000246467 0)
(2.45757 -0.000631328 0)
(2.45606 -0.000993408 0)
(2.45341 -0.00134063 0)
(2.45057 -0.00167112 0)
(2.44645 -0.00199269 0)
(2.44257 -0.00229751 0)
(2.43702 -0.0025952 0)
(2.43231 -0.00287039 0)
(2.42527 -0.00313984 0)
(2.42003 -0.00337841 0)
(2.41134 -0.00361599 0)
(2.40604 -0.00381057 0)
(2.39545 -0.00401359 0)
(2.3908 -0.0041549 0)
(2.37779 -0.0043218 0)
(2.37485 -0.00439875 0)
(2.35848 -0.00453076 0)
(1.91638 0.162082 6.03435e-22)
(1.93367 0.146087 0)
(1.94298 0.129702 3.50109e-23)
(1.94684 0.1131 1.4393e-21)
(1.94182 0.0966113 -9.58006e-21)
(1.93504 0.0812696 0)
(1.91754 0.0653967 -1.48993e-20)
(1.88954 0.0537497 0)
(1.87278 0.0367313 -1.9312e-20)
(1.71007 0.0197352 3.10759e-22)
(1.94593 0.147549 -9.73869e-22)
(1.96151 0.134057 8.8992e-23)
(1.96996 0.119795 -8.91727e-23)
(1.97235 0.106673 -1.51674e-21)
(1.97017 0.0920585 1.66671e-21)
(1.95744 0.0805309 2.18872e-22)
(1.95774 0.0662107 0)
(1.91021 0.0558869 1.30839e-20)
(1.94248 0.0455741 0)
(1.81684 0.0269366 1.81285e-20)
(1.98113 0.132889 2.10912e-21)
(1.99272 0.121478 0)
(2.0026 0.108499 -5.9629e-23)
(1.99874 0.0975539 -1.37614e-21)
(2.00411 0.0846435 -1.88724e-21)
(1.97887 0.0745455 0)
(1.99547 0.0636475 -6.99803e-21)
(1.93575 0.051811 -1.33448e-20)
(1.97331 0.0458261 0)
(1.8886 0.0302293 -1.79436e-20)
(2.0196 0.119898 -1.00703e-21)
(2.02632 0.10979 3.5791e-21)
(2.03958 0.098456 0)
(2.02854 0.0883907 1.47727e-21)
(2.04077 0.0778879 -4.09833e-23)
(2.00728 0.067304 1.82722e-22)
(2.02766 0.0595259 6.92636e-21)
(1.9718 0.0469479 2.3382e-22)
(1.99475 0.0416609 9.81427e-21)
(1.93732 0.0306804 0)
(2.05939 0.108265 0)
(2.0623 0.0989478 -3.51223e-21)
(2.0779 0.0896467 -3.42569e-21)
(2.0632 0.0798258 2.93388e-22)
(2.07711 0.0717025 -1.52917e-22)
(2.04393 0.0608849 6.29442e-23)
(2.05824 0.0546414 2.06618e-21)
(2.01327 0.0435352 3.87461e-22)
(2.02237 0.0373578 -2.44827e-21)
(1.97662 0.0295654 -1.01751e-20)
(2.09915 0.0976935 1.51454e-21)
(2.10048 0.0889837 2.46137e-22)
(2.11577 0.0814267 -9.28791e-22)
(2.10173 0.0720287 1.74948e-22)
(2.11294 0.065368 -3.16291e-21)
(2.0851 0.0554732 0)
(2.09179 0.0494238 -2.36004e-21)
(2.05561 0.0406314 8.26386e-23)
(2.05768 0.0335389 -1.28397e-20)
(2.01471 0.0272434 1.79666e-20)
(2.1383 0.0879205 -1.52199e-21)
(2.13985 0.079956 -2.60172e-21)
(2.15307 0.0735023 3.60599e-21)
(2.14181 0.0650159 -5.70663e-21)
(2.14939 0.0589041 -1.27126e-21)
(2.12701 0.0505561 -2.39692e-21)
(2.1292 0.0442053 -1.74019e-23)
(2.09753 0.0371733 1.15868e-22)
(2.09758 0.0297208 5.22992e-21)
(2.05508 0.0241343 -7.81462e-21)
(2.17675 0.0788282 0)
(2.17909 0.0717872 5.7258e-21)
(2.1901 0.0659384 -5.39294e-22)
(2.18152 0.0586195 2.80136e-21)
(2.1868 0.0526697 -8.9958e-22)
(2.16798 0.0457388 5.59049e-21)
(2.16884 0.0392514 -1.73897e-21)
(2.1394 0.0332346 0)
(2.13962 0.0260232 0)
(2.0983 0.0208697 0)
(2.21429 0.0704197 0)
(2.21721 0.0643271 -5.48739e-21)
(2.22673 0.0588905 -3.28721e-22)
(2.21993 0.0526581 3.45517e-21)
(2.22442 0.04691 5.06488e-21)
(2.20773 0.040992 -3.51829e-21)
(2.20889 0.0347458 2.15938e-21)
(2.18141 0.0293427 -1.00922e-22)
(2.18229 0.0226987 0)
(2.14341 0.0178276 -9.43707e-22)
(2.25043 0.0627004 2.12313e-22)
(2.25357 0.057447 3.15087e-21)
(2.26232 0.0524317 4.60982e-21)
(2.25666 0.0470602 -1.66284e-22)
(2.26118 0.0416896 4.48117e-22)
(2.24622 0.0364682 -5.19928e-21)
(2.24806 0.0307246 3.90486e-21)
(2.22305 0.0257647 -1.52143e-22)
(2.22444 0.0197344 0)
(2.18902 0.0150661 1.04929e-21)
(2.28447 0.0556305 0)
(2.28769 0.0510713 3.32441e-21)
(2.29602 0.0465408 3.05003e-22)
(2.29136 0.0418334 0)
(2.29614 0.0369722 0)
(2.28307 0.0322773 4.66726e-21)
(2.28549 0.0271185 -3.21782e-21)
(2.26347 0.0225173 -1.22585e-22)
(2.2651 0.0170611 9.4937e-23)
(2.23387 0.0125908 -8.7858e-23)
(2.31563 0.0491289 0)
(2.31898 0.0451505 -6.41285e-21)
(2.32701 0.0411475 -6.31457e-21)
(2.3235 0.0369865 8.63003e-22)
(2.32848 0.0326869 -5.32101e-22)
(2.31762 0.0284419 -3.30444e-22)
(2.32039 0.0238642 5.68903e-22)
(2.30176 0.0195948 3.09472e-21)
(2.30348 0.0147033 2.10464e-22)
(2.27692 0.010464 -4.69751e-23)
(2.34308 0.0430907 0)
(2.34676 0.0396252 3.48229e-21)
(2.35451 0.0361596 -3.46169e-22)
(2.35236 0.0324906 3.43309e-22)
(2.35745 0.0287566 0)
(2.34904 0.0249403 0)
(2.35205 0.0209315 0)
(2.33705 0.0170155 -3.48317e-21)
(2.33877 0.0126985 2.93091e-21)
(2.31712 0.00873748 0)
(2.36607 0.0373913 0)
(2.37029 0.0344056 2.27937e-21)
(2.3778 0.0314669 2.75815e-21)
(2.37718 0.0282736 3.29436e-21)
(2.38234 0.0250929 -5.98838e-22)
(2.37651 0.021719 3.25559e-21)
(2.37968 0.0182738 -2.53638e-21)
(2.3684 0.0147576 0)
(2.37012 0.011016 5.79656e-22)
(2.3534 0.00739681 -2.4461e-21)
(2.3841 0.0318819 -5.45333e-22)
(2.38903 0.029365 -1.86214e-21)
(2.39638 0.0269343 -3.57018e-21)
(2.39736 0.0242223 -2.32359e-21)
(2.4026 0.021579 0)
(2.39934 0.0186792 -4.08395e-21)
(2.40264 0.0157897 3.68544e-21)
(2.39499 0.0127291 -3.34115e-22)
(2.39671 0.00955497 -1.48105e-21)
(2.38474 0.00635985 3.72882e-21)
(2.39718 0.0263919 5.48133e-22)
(2.40294 0.0243471 -1.4941e-21)
(2.41023 0.022406 1.23637e-21)
(2.41278 0.020191 -2.8778e-21)
(2.41808 0.0180682 0)
(2.41722 0.0156783 0)
(2.42064 0.0133308 3.64848e-22)
(2.41629 0.0107826 -3.27857e-21)
(2.41804 0.00816795 -1.60806e-21)
(2.41034 0.0054845 -1.37355e-21)
(2.40607 0.0207716 0)
(2.41266 0.0192102 2.41637e-21)
(2.41995 0.0177442 -8.2714e-22)
(2.42388 0.0160416 2.6005e-21)
(2.42926 0.0144209 6.67747e-22)
(2.43042 0.0125664 -4.71964e-22)
(2.43394 0.0107449 8.44793e-22)
(2.43235 0.00875012 2.24947e-21)
(2.43418 0.00668979 0)
(2.42999 0.00458139 0)
(2.41205 0.014981 0)
(2.4193 0.013913 1.00465e-21)
(2.42658 0.0129135 -1.7267e-21)
(2.43156 0.01173 0)
(2.43697 0.0105956 -1.27429e-21)
(2.43966 0.00927988 -4.86881e-22)
(2.44326 0.00796967 -1.28465e-21)
(2.44373 0.00653248 -3.19048e-22)
(2.44566 0.00502145 1.84586e-22)
(2.44409 0.0034946 1.21056e-22)
(2.41611 0.00905754 0)
(2.42373 0.00849181 -1.00947e-21)
(2.43095 0.00796891 -8.5458e-22)
(2.43659 0.00732139 1.11348e-21)
(2.44198 0.00668171 5.82837e-22)
(2.44565 0.00591373 5.41208e-22)
(2.44928 0.00512045 2.16324e-21)
(2.45108 0.0042379 -1.45053e-21)
(2.4531 0.00327963 3.17626e-22)
(2.45323 0.00230898 0)
(2.41833 0.00288551 0)
(2.4261 0.00282474 4.83143e-22)
(2.43323 0.00277334 -4.50679e-22)
(2.43916 0.00266234 4.12397e-22)
(2.44451 0.00252853 0)
(2.44864 0.00232503 -5.43903e-22)
(2.45227 0.00208247 4.15107e-22)
(2.45471 0.00178342 3.24956e-22)
(2.45676 0.00142999 0)
(2.45772 0.00104706 0)
(1.28218 0.301575 0)
(1.23392 0.329987 -5.36179e-20)
(1.1961 0.36718 0)
(1.16554 0.414532 -1.7744e-19)
(1.1386 0.471375 6.88802e-20)
(1.11335 0.539892 2.85463e-21)
(1.08806 0.621905 5.34918e-20)
(1.04485 0.707804 -9.91608e-21)
(0.909964 0.733218 0)
(0.525158 0.464886 4.621e-20)
(1.36617 0.303918 9.66912e-20)
(1.32051 0.34015 5.3616e-20)
(1.28636 0.376163 -4.9336e-20)
(1.25879 0.421887 5.98451e-20)
(1.2354 0.478197 -4.71996e-20)
(1.21557 0.546187 9.78544e-21)
(1.19738 0.626955 -5.64727e-20)
(1.15986 0.709439 -1.07062e-19)
(1.01834 0.727757 -2.83726e-20)
(0.586228 0.451418 -6.66686e-20)
(1.4461 0.301267 -4.13199e-20)
(1.40649 0.339836 4.24895e-20)
(1.37607 0.375249 4.93338e-20)
(1.3506 0.420057 4.99439e-20)
(1.33013 0.475644 5.01085e-20)
(1.31541 0.542286 4.941e-20)
(1.30368 0.620259 1.14838e-20)
(1.27011 0.696658 4.23203e-20)
(1.1189 0.705356 1.08322e-20)
(0.637723 0.424745 -1.15631e-20)
(1.52518 0.295819 8.25871e-20)
(1.49039 0.334251 -4.24873e-20)
(1.46273 0.36833 0)
(1.43902 0.411409 0)
(1.42127 0.465028 0)
(1.41115 0.528924 3.12543e-20)
(1.40465 0.602371 -2.21609e-20)
(1.37224 0.670093 0)
(1.2071 0.666562 2.84356e-21)
(0.674703 0.385456 -3.60704e-21)
(1.60068 0.287101 -1.35347e-20)
(1.56931 0.323922 5.27248e-20)
(1.54387 0.35628 0)
(1.52205 0.396993 0)
(1.50701 0.447459 1.22538e-20)
(1.50089 0.507234 1.01436e-20)