/*--------------------------------*- C++ -*----------------------------------*\
| =========                 |                                                 |
| \\      /  F ield         | OpenFOAM: The Open Source CFD Toolbox           |
|  \\    /   O peration     | Version:  4.1                                   |
|   \\  /    A nd           | Web:      www.OpenFOAM.org                      |
|    \\/     M anipulation  |                                                 |
\*---------------------------------------------------------------------------*/
FoamFile
{
    version     2.0;
    format      ascii;
    class       volScalarField;
    location    "11.4";
    object      p;
}
// * * * * * * * * * * * * * * * * * * * * * * * * * * * * * * * * * * * * * //

dimensions      [0 2 -2 0 0 0 0];

internalField   nonuniform List<scalar> 
2000
(
0.0944228
0.102972
0.111534
0.119734
0.126811
0.132523
0.13714
0.139788
0.142388
0.138028
0.0783277
0.0902318
0.100969
0.110914
0.11962
0.126962
0.133073
0.137795
0.141875
0.142499
0.0582001
0.0741299
0.0872485
0.0992078
0.11015
0.119989
0.128748
0.136423
0.143275
0.14878
0.0340092
0.054516
0.0702721
0.084925
0.0992642
0.112855
0.125358
0.136601
0.146913
0.155311
0.00628804
0.0317436
0.0506116
0.0692868
0.0886312
0.107279
0.124341
0.139609
0.15313
0.164479
-0.0234828
0.00693538
0.0299607
0.0545763
0.080546
0.105189
0.127239
0.146531
0.163248
0.177431
-0.0527405
-0.0178366
0.0112143
0.0438037
0.0774875
0.108453
0.135429
0.158555
0.178274
0.195221
-0.0779248
-0.0393857
-0.00207001
0.0400162
0.081686
0.118676
0.150157
0.17672
0.199246
0.218803
-0.0950893
-0.0535931
-0.00641231
0.0457351
0.0949025
0.137178
0.172492
0.201965
0.226915
0.248588
-0.100588
-0.0563335
0.00123247
0.0628203
0.118392
0.164936
0.203259
0.234996
0.261817
0.284861
0.154065
0.149481
0.146945
0.144448
0.141568
0.138337
0.134782
0.1309
0.126612
0.121726
0.152244
0.148038
0.145705
0.143348
0.140611
0.137543
0.134178
0.130552
0.12662
0.121941
0.148892
0.145431
0.143486
0.141452
0.139052
0.136355
0.133412
0.130298
0.127064
0.122979
0.144538
0.142062
0.140721
0.139246
0.137435
0.135373
0.133126
0.130773
0.128523
0.125892
0.13969
0.138313
0.137804
0.137162
0.136217
0.135058
0.133776
0.13243
0.131409
0.130614
0.134649
0.1344
0.13495
0.13541
0.135578
0.135517
0.135347
0.135162
0.13552
0.137268
0.129389
0.130299
0.132112
0.133899
0.135359
0.136487
0.137448
0.13835
0.139522
0.145319
0.123501
0.125728
0.12895
0.13225
0.135097
0.137433
0.139446
0.141351
0.142458
0.152231
0.11624
0.120134
0.124925
0.129833
0.134131
0.137576
0.140484
0.143134
0.144337
0.154729
0.106845
0.112754
0.119334
0.125884
0.131551
0.136078
0.139764
0.142342
0.144328
0.148996
0.116181
0.110306
0.103965
0.0971743
0.0899938
0.0824923
0.074756
0.0668879
0.0590043
0.0512315
0.0437009
0.0365427
0.0298773
0.0238043
0.0183963
0.0137057
0.00976676
0.00653854
0.00380029
0.00120602
0.115901
0.110067
0.103768
0.096962
0.0897339
0.0821586
0.074324
0.0663362
0.0583164
0.0503971
0.0427177
0.0354182
0.0286311
0.0224709
0.0170273
0.0123617
0.00848758
0.00533092
0.00275499
0.000747989
0.115986
0.110229
0.104024
0.0971843
0.0898572
0.0821349
0.0741063
0.0658818
0.0575894
0.0493713
0.0413804
0.0337743
0.0267075
0.0203225
0.0147415
0.0100565
0.00628357
0.00329936
0.00101953
-9.03313e-05
0.117024
0.111578
0.105557
0.0986711
0.0912101
0.0832936
0.0750083
0.0664652
0.0577977
0.0491574
0.0407115
0.0326371
0.0251151
0.0183222
0.012423
0.00756061
0.00380659
0.00104784
-0.000865458
-0.00113638
0.120279
0.11447
0.108762
0.101931
0.094337
0.0862222
0.0776804
0.0688086
0.0597383
0.0506285
0.0416575
0.0330186
0.0249158
0.0175578
0.0111483
0.00588157
0.00191418
-0.000755156
-0.00233585
-0.00220194
0.124882
0.118406
0.113219
0.106714
0.0990684
0.0908044
0.0820894
0.0729784
0.0635795
0.0540571
0.0445999
0.0354117
0.026711
0.0187291
0.0117014
0.00586038
0.00142116
-0.00147616
-0.00289877
-0.00258788
0.12986
0.122309
0.118004
0.112234
0.104683
0.0963619
0.0876136
0.0784139
0.0688211
0.0590104
0.0491863
0.0395587
0.0303523
0.0218114
0.0141886
0.00773956
0.00270604
-0.000691267
-0.00229941
-0.00215741
0.134178
0.125321
0.122241
0.117485
0.110166
0.101953
0.0933719
0.0842673
0.0746472
0.0647135
0.0546859
0.0447739
0.0352015
0.0262224
0.0180969
0.0110943
0.00546479
0.00142797
-0.000749139
-0.00132136
0.136818
0.127915
0.126371
0.122334
0.11528
0.107422
0.0991364
0.0901368
0.0804972
0.0704891
0.0603393
0.0502483
0.04043
0.0311395
0.0226276
0.0151615
0.00897642
0.00425896
0.00124695
-0.000348205
0.133756
0.130323
0.129769
0.125252
0.119045
0.11244
0.104996
0.0964665
0.0870991
0.0772177
0.0670536
0.0568241
0.0467523
0.0371063
0.028133
0.0201003
0.013225
0.00766904
0.00358949
0.000719142
0.142018
0.14218
0.135887
0.128584
0.121843
0.115007
0.10737
0.0988145
0.0895454
0.0798153
0.0698211
0.0597676
0.0498506
0.0403138
0.031368
0.0232466
0.0161219
0.0101068
0.00529679
0.00144219
0.139577
0.139688
0.134336
0.127543
0.120917
0.114138
0.106667
0.0983864
0.0894501
0.0800868
0.0704832
0.0608301
0.0512944
0.0420848
0.033374
0.0253524
0.0181521
0.0118457
0.00649165
0.0018844
0.141191
0.139117
0.134479
0.128296
0.12158
0.114515
0.106912
0.0986896
0.089931
0.0808138
0.0714973
0.0621532
0.0529165
0.0439645
0.0354239
0.0274569
0.0201379
0.0135473
0.00766315
0.00240857
0.145348
0.140924
0.136111
0.130129
0.123241
0.11582
0.10797
0.0996925
0.0910164
0.0820588
0.0729386
0.0638079
0.05477
0.0459815
0.0375191
0.0295377
0.0220416
0.0151575
0.00874921
0.0029135
0.150845
0.144642
0.138926
0.132582
0.125396
0.117636
0.109514
0.101105
0.0924233
0.0835404
0.0745314
0.0655282
0.0566024
0.0478988
0.0394461
0.031404
0.0237085
0.0165406
0.00965892
0.00332189
0.157342
0.149618
0.142644
0.135566
0.12795
0.119851
0.111446
0.102845
0.0940706
0.0851746
0.0761939
0.0672394
0.0583512
0.0496659
0.0411716
0.0330339
0.0251354
0.017698
0.0104108
0.00363932
0.164268
0.155173
0.146936
0.138994
0.130849
0.122382
0.113675
0.104838
0.0959046
0.0869214
0.0778984
0.0689263
0.0600161
0.0512951
0.0427215
0.0344612
0.0263634
0.0186697
0.0110379
0.00388041
0.171119
0.160908
0.151572
0.142768
0.134032
0.125152
0.116119
0.107015
0.0978767
0.0887504
0.0796291
0.0705857
0.0616071
0.0528085
0.0441278
0.0357249
0.0274334
0.0194954
0.0115663
0.00406307
0.177748
0.166663
0.156398
0.146779
0.137425
0.128094
0.118711
0.109321
0.0999475
0.0906387
0.0813769
0.0722203
0.0631374
0.0542293
0.0454214
0.0368623
0.0283822
0.0202114
0.0120208
0.00420715
0.184156
0.172346
0.161274
0.150902
0.140937
0.13114
0.121392
0.111702
0.102077
0.092561
0.0831291
0.0738285
0.0646149
0.0555745
0.0466255
0.0379022
0.0292384
0.0208469
0.0124212
0.00432792
0.190278
0.177848
0.166071
0.155016
0.14447
0.134211
0.124097
0.114103
0.104221
0.094484
0.0848642
0.0753995
0.0660377
0.0568504
0.0477519
0.0388616
0.0300199
0.0214204
0.0127802
0.00443424
0.195994
0.183059
0.170677
0.15901
0.147926
0.137226
0.126756
0.116466
0.106328
0.0963667
0.0865517
0.0769127
0.0673935
0.0580522
0.0488018
0.0397462
0.0307344
0.0219403
0.013104
0.00452943
0.201202
0.187885
0.174996
0.162789
0.151214
0.140105
0.1293
0.118727
0.108344
0.0981637
0.0881553
0.078341
0.0686632
0.0591675
0.049768
0.0405532
0.0313818
0.0224076
0.0133939
0.0046126
0.205843
0.192248
0.178943
0.166267
0.154253
0.142773
0.131661
0.120827
0.110216
0.09983
0.0896378
0.0796547
0.069824
0.0601797
0.0506392
0.0412749
0.0319579
0.022819
0.0136482
0.00468052
0.209882
0.196078
0.18244
0.169369
0.156976
0.145167
0.133781
0.122714
0.111898
0.101325
0.0909653
0.080826
0.0708544
0.0610723
0.0514038
0.041903
0.0324573
0.0231706
0.0138649
0.00473034
0.213296
0.199324
0.185427
0.172039
0.159329
0.147239
0.135617
0.124347
0.113353
0.102618
0.0921108
0.0818329
0.071737
0.0618322
0.0520521
0.042431
0.0328761
0.02346
0.0140429
0.00476198
0.216059
0.201949
0.187858
0.174227
0.161267
0.148948
0.137132
0.125695
0.114554
0.103684
0.093054
0.0826594
0.0724593
0.0624505
0.052578
0.0428556
0.0332123
0.0236881
0.014183
0.00477892
0.218165
0.203936
0.189698
0.175889
0.162742
0.150252
0.138289
0.126725
0.115473
0.1045
0.0937756
0.0832901
0.0730095
0.0629194
0.052976
0.0431747
0.0334646
0.0238564
0.0142863
0.00478595
0.21967
0.205329
0.190963
0.177017
0.163737
0.151129
0.139067
0.127418
0.116091
0.105048
0.0942601
0.0837124
0.0733767
0.063232
0.0532413
0.0433864
0.033632
0.0239662
0.0143534
0.00478705
0.22062
0.206198
0.191715
0.177655
0.164282
0.151601
0.139483
0.127789
0.116423
0.105335
0.0945094
0.083928
0.0735639
0.0633904
0.0533755
0.0434932
0.0337164
0.0240212
0.014387
0.00478724
0.303103
0.266569
0.235735
0.210422
0.190483
0.175094
0.163518
0.154033
0.147167
0.133564
0.318017
0.282152
0.25146
0.225407
0.204056
0.185982
0.17184
0.157499
0.149162
0.13432
0.331406
0.296539
0.266442
0.240001
0.217824
0.197415
0.18162
0.164453
0.156056
0.141918
0.343329
0.309413
0.279894
0.253132
0.23057
0.208898
0.192714
0.174998
0.165585
0.150674
0.353875
0.320778
0.291769
0.264864
0.242248
0.220189
0.203724
0.185616
0.174
0.158287
0.363204
0.330866
0.302362
0.275553
0.25298
0.230781
0.21356
0.194838
0.181583
0.165788
0.371471
0.339878
0.31188
0.285313
0.262718
0.240397
0.222417
0.203457
0.189542
0.173704
0.378806
0.347939
0.320417
0.294151
0.271518
0.249211
0.230858
0.211987
0.197695
0.181555
0.3853
0.355121
0.328044
0.302119
0.279532
0.257396
0.238926
0.220124
0.205404
0.189004
0.391025
0.361487
0.334833
0.309285
0.286832
0.26492
0.246379
0.227586
0.212492
0.196072
0.396052
0.367108
0.340854
0.315691
0.293404
0.271713
0.253106
0.234389
0.219045
0.202762
0.400427
0.372049
0.346158
0.321369
0.299245
0.277787
0.259149
0.240601
0.225074
0.208948
0.404179
0.376336
0.35078
0.326355
0.304391
0.28319
0.264551
0.246205
0.23051
0.214512
0.407343
0.379985
0.354748
0.330686
0.308881
0.287948
0.269319
0.25116
0.235314
0.219415
0.40996
0.383049
0.358112
0.3344
0.312749
0.292072
0.273454
0.255459
0.239483
0.223669
0.412084
0.38558
0.360914
0.337527
0.316017
0.295574
0.276964
0.259121
0.243024
0.227285
0.413744
0.387605
0.363177
0.34008
0.318695
0.298464
0.279861
0.262153
0.245934
0.230249
0.414946
0.389128
0.364914
0.342071
0.320802
0.300758
0.282162
0.264566
0.248224
0.232551
0.415645
0.390109
0.366092
0.343477
0.32233
0.302454
0.283886
0.266382
0.249945
0.234243
0.415805
0.390456
0.366584
0.34414
0.323111
0.303372
0.284861
0.267442
0.250984
0.235274
0.860587
0.862573
0.857276
0.84587
0.829277
0.80693
0.776225
0.733578
0.680295
0.649987
0.811143
0.809095
0.795869
0.777752
0.755621
0.72729
0.689288
0.637876
0.574463
0.536687
0.756304
0.748755
0.729331
0.705955
0.678749
0.644511
0.599406
0.539774
0.467
0.422521
0.693169
0.681304
0.65821
0.631242
0.5998
0.560254
0.508792
0.442089
0.361242
0.311564
0.626459
0.611095
0.585443
0.555723
0.520725
0.476651
0.419852
0.347712
0.260734
0.208218
0.560058
0.541481
0.513806
0.481894
0.443999
0.396278
0.335221
0.259169
0.169824
0.116463
0.495936
0.474507
0.445429
0.412
0.372023
0.321745
0.257857
0.179271
0.0927203
0.0389881
0.435401
0.411675
0.382009
0.347918
0.306844
0.255303
0.190501
0.112391
0.0304145
-0.0221458
0.379557
0.354305
0.325199
0.291262
0.249966
0.198648
0.135074
0.0601
-0.0155618
-0.0656787
0.328195
0.304309
0.276132
0.242873
0.202507
0.152899
0.0924476
0.0230559
-0.0443163
-0.0914765
1.12901
1.14089
1.15414
1.16877
1.18476
1.20192
1.21972
1.23663
1.25154
1.27078
1.12626
1.13747
1.15021
1.16429
1.17956
1.19585
1.21258
1.2282
1.24162
1.25997
1.12043
1.13032
1.14206
1.15502
1.1689
1.18345
1.19805
1.21109
1.22166
1.23805
1.11096
1.11886
1.12913
1.14047
1.15229
1.16429
1.17575
1.18497
1.19135
1.20474
1.09706
1.10234
1.1107
1.11995
1.12911
1.1378
1.14519
1.14943
1.15028
1.15968
1.07789
1.07989
1.08596
1.09272
1.09868
1.10338
1.10584
1.10405
1.09813
1.10257
1.05263
1.05081
1.05433
1.05828
1.06056
1.06062
1.05738
1.04859
1.03474
1.03334
1.02001
1.01387
1.01494
1.01603
1.01429
1.00922
0.999648
0.983087
0.960313
0.952298
0.97947
0.969305
0.968491
0.9664
0.960034
0.94932
0.932933
0.907988
0.875469
0.860291
0.925903
0.916438
0.915328
0.909663
0.898227
0.881599
0.858067
0.824316
0.781478
0.758816
1.00185
1.00581
1.01036
1.01512
1.01988
1.02467
1.02954
1.03456
1.03975
1.04514
1.05075
1.05659
1.06273
1.0692
1.07606
1.08337
1.09119
1.09959
1.10864
1.11843
1.00185
1.00584
1.01038
1.01511
1.01984
1.02459
1.02944
1.03442
1.03957
1.04492
1.05046
1.05623
1.06228
1.06865
1.07538
1.08254
1.09016
1.09832
1.10707
1.11648
1.00189
1.0059
1.01038
1.01505
1.01972
1.02442
1.0292
1.03411
1.03918
1.04441
1.04982
1.05544
1.0613
1.06745
1.07391
1.08073
1.08795
1.0956
1.10368
1.11228
1.00194
1.00595
1.01035
1.01491
1.01949
1.02409
1.02878
1.03357
1.03849
1.04353
1.04871
1.05407
1.05963
1.06541
1.07142
1.07769
1.08421
1.09102
1.09801
1.10528
1.00197
1.00598
1.01025
1.01466
1.01909
1.02354
1.02805
1.03264
1.03736
1.04213
1.04698
1.05195
1.05705
1.06227
1.0676
1.07304
1.07854
1.08408
1.08946
1.09475
1.00198
1.00597
1.01006
1.01424
1.01847
1.02272
1.02702
1.03138
1.0357
1.04004
1.04444
1.04887
1.05332
1.05775
1.06213
1.06639
1.07044
1.07421
1.07734
1.07984
1.00195
1.00586
1.00972
1.01361
1.01753
1.02147
1.02551
1.02946
1.03331
1.03713
1.04093
1.04465
1.04822
1.05159
1.05467
1.05734
1.05943
1.06077
1.06091
1.05964
1.00184
1.00555
1.00914
1.01271
1.01635
1.01997
1.02343
1.02681
1.03012
1.03332
1.03635
1.03913
1.04158
1.04356
1.04499
1.0456
1.04523
1.04341
1.03971
1.03343
1.00168
1.00511
1.00839
1.01153
1.01462
1.01768
1.02066
1.0235
1.02616
1.02856
1.03063
1.03224
1.03328
1.0335
1.0328
1.03072
1.02733
1.02162
1.01368
1.00083
1.0015
1.00438
1.00711
1.00977
1.01238
1.01492
1.01733
1.0195
1.02135
1.02276
1.02364
1.02381
1.02316
1.02127
1.01814
1.01275
1.00544
0.993586
0.979338
0.955946
1.00105
1.00344
1.00571
1.00777
1.00972
1.01157
1.01323
1.01455
1.01544
1.01572
1.01532
1.01392
1.01145
1.00727
1.00139
0.992389
0.980724
0.962461
0.939362
0.898486
1.00075
1.0024
1.00394
1.00536
1.00668
1.00785
1.00879
1.00929
1.00924
1.00842
1.00679
1.00397
0.999897
0.993832
0.985904
0.974467
0.960287
0.93961
0.915462
0.880901
1.0009
1.00159
1.00207
1.00264
1.00324
1.00376
1.00402
1.00371
1.00272
1.00084
0.99804
0.993907
0.988444
0.98082
0.971315
0.958253
0.942753
0.921461
0.897948
0.865727
1.00024
1.00087
1.00074
1.00009
0.999686
0.999524
0.999126
0.998014
0.996071
0.993124
0.989202
0.983852
0.97713
0.96816
0.95737
0.943091
0.926731
0.905008
0.881775
0.850431
0.998913
0.999191
0.998236
0.996462
0.995448
0.99494
0.994058
0.992184
0.989308
0.98534
0.980375
0.973917
0.966076
0.955949
0.944106
0.928878
0.911872
0.889823
0.866775
0.836383
1.00138
0.999042
0.994262
0.991378
0.990517
0.990166
0.988959
0.986329
0.982528
0.977599
0.971682
0.964229
0.9554
0.944283
0.931566
0.915601
0.898108
0.875933
0.853124
0.823781
0.99672
0.993233
0.988416
0.985684
0.985718
0.985883
0.984292
0.980742
0.97595
0.970094
0.9633
0.954943
0.945223
0.933251
0.919795
0.903271
0.88542
0.863294
0.840734
0.812398
0.999981
0.98867
0.977841
0.976915
0.980348
0.981947
0.979969
0.975372
0.969589
0.962893
0.955313
0.946146
0.935621
0.922913
0.908829
0.891894
0.873778
0.851809
0.829471
0.802079
0.997494
0.978782
0.966081
0.969226
0.976597
0.979319
0.976548
0.970702
0.963886
0.956359
0.947997
0.938044
0.926755
0.913394
0.898759
0.881516
0.863188
0.841432
0.819278
0.792757
0.997061
0.974295
0.960752
0.966496
0.975553
0.977856
0.973735
0.966663
0.958917
0.950584
0.941414
0.930682
0.918669
0.904738
0.889624
0.872151
0.853649
0.832125
0.810127
0.784389
1.00024
0.98476
0.975258
0.977835
0.980784
0.978332
0.971726
0.963515
0.954977
0.945794
0.935715
0.92416
0.911443
0.897004
0.881472
0.863816
0.845168
0.823862
0.802003
0.776931
0.994125
1.00144
1.01006
1.00584
0.994396
0.98215
0.971476
0.961922
0.952528
0.942323
0.931152
0.918673
0.905233
0.890302
0.874384
0.856552
0.83777
0.816629
0.794894
0.770347
1.00262
1.02533
1.03845
1.02656
1.00431
0.984718
0.970895
0.960371
0.950366
0.93931
0.927167
0.913861
0.899796
0.88445
0.868216
0.85023
0.831349
0.81032
0.788717
0.764546
1.00719
1.03742
1.0522
1.03655
1.00882
0.985187
0.969589
0.95857
0.9482
0.936513
0.923605
0.909636
0.895066
0.879379
0.862887
0.844763
0.82581
0.804854
0.783386
0.759479
1.00813
1.04222
1.0589
1.0407
1.00934
0.983481
0.967242
0.956161
0.945616
0.93355
0.920157
0.905757
0.890828
0.87488
0.858177
0.839956
0.820951
0.800084
0.778731
0.755092
1.00279
1.03865
1.06133
1.04332
1.00926
0.981775
0.964775
0.953239
0.942372
0.930127
0.916614
0.902074
0.886936
0.87081
0.853931
0.835677
0.816631
0.79592
0.77464
0.75135
0.980328
0.989957
1.01587
1.01656
1.00052
0.981217
0.964827
0.951341
0.939146
0.926739
0.91348
0.899044
0.883724
0.867427
0.850365
0.8321
0.813004
0.792484
0.771234
0.74831
1.0001
0.955727
0.924636
0.939509
0.963204
0.970601
0.962263
0.948231
0.934664
0.922218
0.909652
0.895929
0.880914
0.864662
0.847499
0.829261
0.810149
0.789821
0.768613
0.745988
1.0035
0.956966
0.917377
0.927571
0.953151
0.96381
0.958208
0.945864
0.932823
0.920341
0.907681
0.893978
0.87901
0.862815
0.84561
0.827384
0.808251
0.788051
0.766892
0.744492
0.978011
0.989766
1.01547
1.00711
0.983227
0.965177
0.954328
0.944732
0.933562
0.920897
0.907392
0.893185
0.878093
0.861926
0.844712
0.826488
0.807318
0.787176
0.766049
0.743819
0.854058
0.801568
0.747836
0.68932
0.626961
0.564762
0.504827
0.447794
0.394401
0.345598
0.847031
0.793108
0.736618
0.680897
0.622637
0.563883
0.507447
0.453914
0.404065
0.358746
0.834915
0.783398
0.726306
0.672846
0.619078
0.5641
0.510801
0.460384
0.413577
0.37048
0.822054
0.774362
0.718168
0.665884
0.615638
0.564332
0.513938
0.46613
0.421815
0.380752
0.809678
0.765492
0.71115
0.659834
0.61226
0.564416
0.516875
0.471336
0.429128
0.38982
0.798072
0.756873
0.704975
0.654839
0.609249
0.564393
0.519586
0.476114
0.435686
0.397867
0.787286
0.748599
0.699385
0.650721
0.606685
0.564276
0.521991
0.480461
0.441573
0.405024
0.777327
0.74076
0.694268
0.647326
0.604621
0.564153
0.524086
0.484374
0.446855
0.411405
0.768206
0.733427
0.689571
0.644506
0.603029
0.564081
0.525876
0.487831
0.451559
0.417081
0.759932
0.726652
0.68526
0.642129
0.601827
0.564074
0.527376
0.490814
0.455692
0.4221
0.75253
0.720498
0.68132
0.640071
0.600903
0.564108
0.528598
0.493315
0.459242
0.426493
0.746023
0.715019
0.677735
0.638216
0.600125
0.564132
0.529552
0.495345
0.462196
0.4302
0.740363
0.710203
0.674464
0.63645
0.599361
0.564075
0.530244
0.496942
0.464615
0.433326
0.735486
0.705987
0.671454
0.634697
0.598525
0.563894
0.530694
0.498162
0.46659
0.436006
0.73122
0.702189
0.668608
0.632926
0.597602
0.563592
0.530943
0.499063
0.468148
0.438189
0.727411
0.698664
0.665896
0.631191
0.596662
0.563228
0.531046
0.499702
0.46933
0.439918
0.724133
0.69551
0.663432
0.629604
0.595787
0.56285
0.531042
0.500118
0.470178
0.44123
0.721551
0.69293
0.661347
0.628202
0.594949
0.562402
0.530879
0.500282
0.470693
0.442133
0.719887
0.69119
0.65984
0.627061
0.594119
0.561797
0.530457
0.500102
0.470797
0.442571
0.719184
0.690458
0.659166
0.626453
0.593539
0.561229
0.529919
0.499663
0.470506
0.44249
)
;

boundaryField
{
    bottom
    {
        type            symmetryPlane;
    }
    right
    {
        type            fixedValue;
        value           uniform 0;
    }
    top
    {
        type            symmetryPlane;
    }
    left
    {
        type            fixedValue;
        value           uniform 1;
    }
    cylinder
    {
        type            zeroGradient;
    }
    defaultFaces
    {
        type            empty;
    }
}


// ************************************************************************* //
