/*--------------------------------*- C++ -*----------------------------------*\
| =========                 |                                                 |
| \\      /  F ield         | OpenFOAM: The Open Source CFD Toolbox           |
|  \\    /   O peration     | Version:  4.1                                   |
|   \\  /    A nd           | Web:      www.OpenFOAM.org                      |
|    \\/     M anipulation  |                                                 |
\*---------------------------------------------------------------------------*/
FoamFile
{
    version     2.0;
    format      ascii;
    class       surfaceScalarField;
    location    "11.4";
    object      phi;
}
// * * * * * * * * * * * * * * * * * * * * * * * * * * * * * * * * * * * * * //

dimensions      [0 3 -1 0 0 0 0];

internalField   nonuniform List<scalar> 
3890
(
0.000230142
0.00180963
-0.00203977
0.00186459
0.000540716
-0.00217516
0.00552036
-0.00393997
0.000284201
0.0115324
-0.0106528
0.00464081
0.0198372
-0.0186289
0.0103241
0.0299877
-0.0269071
0.0167566
0.0413111
-0.0347217
0.0233984
0.0532276
-0.0415985
0.0296819
0.0651277
-0.0476647
0.0357645
-0.0517155
0.040471
0.0763722
0.000487912
0.00132172
0.00299714
-0.00196851
0.00816428
-0.00910712
0.0160512
-0.0185398
0.0260706
-0.0286483
0.03727
-0.0381065
0.048708
-0.0461597
0.0597133
-0.0526037
0.0696244
-0.0575758
-0.0610381
0.078947
0.000849552
0.000472164
0.00443968
-0.00555864
0.0112126
-0.01588
0.0206181
-0.0279452
0.0314056
-0.0394358
0.0422974
-0.0489984
0.0524149
-0.0562771
0.0613411
-0.06153
0.0690588
-0.0652936
-0.0679805
0.0760012
0.00130838
-0.000836213
0.00609526
-0.0103455
0.0142515
-0.0240363
0.0243611
-0.0380548
0.0347094
-0.0497841
0.044129
-0.0584179
0.0521686
-0.0643168
0.05892
-0.0682814
0.0647206
-0.0710942
-0.0732602
0.0700004
0.00184666
-0.00268288
0.00778108
-0.0162799
0.0167403
-0.0329955
0.0265323
-0.0478468
0.0354754
-0.0587272
0.0429055
-0.0658481
0.0489134
-0.0703246
0.0539254
-0.0732933
0.0583922
-0.075561
-0.0776121
0.0627441
0.0024279
-0.00511078
0.00923727
-0.0230893
0.0182037
-0.0419618
0.0268368
-0.05648
0.033943
-0.0658334
0.0394495
-0.0713546
0.0438045
-0.0746796
0.0475282
-0.0770171
0.0510201
-0.079053
-0.0810779
0.0544859
0.00298615
-0.00809693
0.0101987
-0.0303019
0.0184288
-0.050192
0.0254562
-0.0635073
0.0307268
-0.071104
0.0345961
-0.0752238
0.0376456
-0.0777291
0.0403451
-0.0797166
0.042964
-0.0816718
-0.0837378
0.0456239
0.00343363
-0.0115306
0.0104943
-0.0373626
0.0174905
-0.0571882
0.0228052
-0.0688221
0.0264297
-0.0747285
0.0289439
-0.0777381
0.0309186
-0.0797038
0.032714
-0.0815121
0.0344962
-0.083454
-0.0855535
0.0363119
0.00368586
-0.0152164
0.0100909
-0.0437676
0.015626
-0.0627233
0.0193123
-0.0725083
0.021516
-0.0769322
0.0228892
-0.0791112
0.0239194
-0.0807339
0.0248581
-0.0824508
0.0257893
-0.0843851
-0.0864927
0.0267285
0.00369244
-0.0189089
0.00909303
-0.0491682
0.0131193
-0.0667496
0.0153351
-0.0747242
0.0163181
-0.0779152
0.0166941
-0.0794872
0.0168459
-0.0808857
0.0169362
-0.0825411
0.0170055
-0.0844544
0.0170505
-0.0865378
-0.000596464
0.000596464
-0.00181319
0.00121673
-0.00336765
0.00155445
-0.00510672
0.00173907
-0.00694989
0.00184317
-0.0088624
0.00191252
-0.0108378
0.00197539
-0.0128864
0.00204861
-0.0150317
0.00214526
0.00228081
-0.0173125
-0.00052947
0.00112593
-0.00161778
0.00230504
-0.00300549
0.00294216
-0.00453859
0.00327217
-0.00612958
0.00343416
-0.00773365
0.00351659
-0.00933368
0.00357542
-0.0109316
0.00364654
-0.0125437
0.00375732
0.00394569
-0.0142086
-0.000412654
0.00153859
-0.00127748
0.00316987
-0.00236584
0.00403052
-0.00352846
0.0044348
-0.00466911
0.00457481
-0.0057265
0.00457398
-0.00666394
0.00451286
-0.00746605
0.00444865
-0.008136
0.00442727
0.0045036
-0.00869391
-0.000278491
0.00181708
-0.000870809
0.00376219
-0.00158444
0.00474415
-0.00227878
0.00512914
-0.00285221
0.00514824
-0.00322824
0.00495001
-0.00334658
0.00463119
-0.00316358
0.00426565
-0.0026576
0.00392129
0.00371466
-0.00186865
-0.000159126
0.00197621
-0.000480598
0.00408366
-0.000799957
0.00506351
-0.000986482
0.00531566
-0.000937788
0.00509954
-0.000567806
0.00458003
0.000202301
0.00386108
0.0014492
0.00301874
0.00324151
0.00212899
0.00136133
0.00559484
-7.70504e-05
0.00205326
-0.00016251
0.00416912
-9.91808e-05
0.00500018
0.00024285
0.00497363
0.000972345
0.00437005
0.00218579
0.00336658
0.00397654
0.00207034
0.00643367
0.000561619
0.00964853
-0.00108588
-0.00285873
0.0138686
-3.79206e-05
0.00209118
7.56667e-05
0.00405553
0.000521952
0.0045539
0.00145753
0.00403805
0.00301679
0.00281079
0.00532177
0.0010616
0.00847789
-0.00108579
0.0125688
-0.00352932
0.0176178
-0.00613482
-0.00937299
0.024132
-2.51988e-05
0.00211638
0.000285052
0.00374528
0.0011826
0.00365635
0.0028806
0.00234005
0.00556589
0.000125499
0.0093963
-0.0027688
0.0144638
-0.00615331
0.020778
-0.00984346
0.028253
-0.0136099
-0.0184502
0.0373302
3.05839e-06
0.00211332
0.000576277
0.00317206
0.00209539
0.00213723
0.00485681
-0.000421368
0.00910001
-0.0041177
0.0149475
-0.00861632
0.0223936
-0.0135993
0.0312376
-0.0186875
0.0413668
-0.0237391
-0.0293806
0.0522973
7.35508e-05
0.00107045
0.00349189
0.00771132
0.0139177
0.022058
0.031857
0.0428515
0.0548769
0.0659673
-0.0188092
0.00149669
-0.0202997
0.00149053
-0.0217547
0.00145499
-0.0231635
0.0014088
-0.0245157
0.00135219
-0.0257996
0.00128398
-0.0270032
0.00120358
-0.0281141
0.00111086
-0.0291203
0.00100617
-0.0300106
0.000890363
-0.0307755
0.000764873
-0.0314073
0.000631768
-0.0319011
0.000493834
-0.0322558
0.000354681
-0.0324747
0.000218887
-0.0325668
9.21521e-05
-0.0325474
-1.93836e-05
-0.0324365
-0.000110972
-0.0322528
-0.000183704
-0.000234912
-0.0155194
0.00280753
-0.0168505
0.00282165
-0.0181743
0.00277877
-0.0194817
0.00271622
-0.0207635
0.00263394
-0.0220084
0.00252888
-0.0232041
0.00239934
-0.0243377
0.00224448
-0.0253959
0.00206432
-0.0263653
0.0018598
-0.0272333
0.00163288
-0.0279883
0.00138677
-0.0286207
0.00112614
-0.0291234
0.000857455
-0.0294939
0.00058938
-0.0297349
0.000333102
-0.0298559
0.000101666
-0.0298757
-9.12331e-05
-0.0298213
-0.000238081
-0.000331803
-0.00964248
0.0037561
-0.0106417
0.0038209
-0.0116756
0.00381263
-0.0127392
0.00377984
-0.0138265
0.00372123
-0.0149287
0.00363113
-0.0160353
0.00350586
-0.017134
0.00334322
-0.0182117
0.00314204
-0.0192541
0.00290217
-0.0202458
0.00262459
-0.0211709
0.0023119
-0.0220134
0.00196864
-0.0227579
0.00160192
-0.0233909
0.00122235
-0.0239026
0.0008448
-0.0242895
0.000488626
-0.0245584
0.000177661
-0.024739
-5.75239e-05
-0.00019169
-0.00228725
0.0041747
-0.00281708
0.00435073
-0.00341679
0.00441233
-0.00408098
0.00444403
-0.00481291
0.00445316
-0.00561017
0.00442839
-0.00646624
0.00436193
-0.00737306
0.00425004
-0.00832138
0.00409036
-0.00930024
0.00388103
-0.0102967
0.00362104
-0.0112957
0.00331088
-0.0122799
0.00295289
-0.0132299
0.00255194
-0.0141242
0.00211658
-0.0149399
0.00166054
-0.0156551
0.00120381
-0.0162527
0.000775241
-0.0167372
0.000427038
0.000229581
0.00568372
0.00408582
0.00563895
0.0043955
0.00551251
0.00453876
0.00531757
0.00463898
0.00503962
0.0047311
0.00467156
0.00479646
0.00421443
0.00481906
0.00367066
0.00479381
0.00304258
0.00471844
0.00233382
0.00458979
0.0015501
0.00440476
0.000699415
0.00416157
-0.000207806
0.00386012
-0.0011581
0.00350223
-0.00213386
0.00309234
-0.00311225
0.00263893
-0.0040646
0.00215616
-0.00495463
0.00166527
-0.00573843
0.00121084
0.00091149
0.0143147
0.00363969
0.0146099
0.00410036
0.0148416
0.00430704
0.0150317
0.00444883
0.0151554
0.00460745
0.0151987
0.00475312
0.0151595
0.00485826
0.0150351
0.00491822
0.0148208
0.00493277
0.0145126
0.00489802
0.0141083
0.00480903
0.0136076
0.00466229
0.0130115
0.00445617
0.0123232
0.00419053
0.0115482
0.00386739
0.010696
0.00349111
0.00978189
0.00307024
0.00883165
0.00261551
0.00789539
0.00214711
0.00175602
0.0245989
0.00317286
0.024959
0.00374026
0.0253102
0.0039558
0.0256703
0.00408871
0.0260022
0.00427557
0.0262933
0.00446207
0.0265418
0.00460971
0.0267405
0.00471951
0.0268785
0.00479479
0.026946
0.00483049
0.026935
0.00482006
0.0268385
0.0047588
0.0266503
0.00464441
0.0263654
0.00447536
0.0259797
0.00425313
0.0254911
0.00397969
0.0248978
0.00366352
0.0242035
0.0033098
0.0234105
0.0029402
0.00255158
0.0374695
0.00303353
0.0376427
0.00356704
0.0379139
0.00368465
0.0382389
0.00376362
0.0385739
0.00394059
0.0389225
0.00411353
0.0392828
0.00424937
0.0396412
0.00436113
0.039983
0.00445292
0.0402967
0.00451684
0.0405711
0.00454565
0.040796
0.00453392
0.0409608
0.00447957
0.041057
0.00437918
0.0410743
0.00423588
0.0410066
0.00404738
0.0408405
0.00382956
0.0405778
0.00357253
0.0401814
0.00333659
0.00301862
0.0521315
0.00319929
0.052214
0.00348454
0.0525089
0.00338977
0.0528371
0.00343543
0.0531877
0.00358993
0.0535797
0.00372157
0.0540013
0.00382779
0.0544379
0.00392445
0.0548818
0.00400902
0.0553272
0.0040715
0.0557661
0.00410676
0.0561912
0.0041088
0.0565928
0.00407792
0.0569646
0.00400745
0.0572939
0.00390649
0.0575777
0.00376359
0.0577964
0.00361093
0.0579569
0.00341195
0.058024
0.00326953
0.00303919
0.0662812
0.0028854
0.0670007
0.00276502
0.0676163
0.00277415
0.068161
0.00289079
0.0687181
0.00303278
0.0692784
0.00316126
0.0698315
0.00327469
0.0703829
0.0033731
0.0709379
0.00345396
0.0714998
0.00350963
0.0720675
0.00353909
0.0726417
0.0035346
0.0732176
0.00350196
0.0737957
0.00342941
0.0743656
0.00333662
0.0749298
0.0031993
0.0754715
0.00306928
0.0759981
0.0028854
0.0764933
0.00277434
0.0025769
0.0915006
0.00381799
-0.0924332
0.0905048
0.00376082
0.0896142
0.00366477
0.0888756
0.00362941
0.0882734
0.00363493
0.0877814
0.00365332
0.0873794
0.00367662
0.0870559
0.00369659
0.0868005
0.00370935
0.086605
0.0037052
0.0864582
0.00368587
0.0863532
0.00363964
0.0862777
0.00357746
0.0862265
0.0034806
0.0861849
0.0033782
0.0861503
0.00323386
0.0861069
0.00311276
0.0860549
0.00293731
0.0859865
0.0028428
0.00266093
0.101632
0.00392031
-0.101734
0.101401
0.00399133
0.101092
0.0039738
0.100791
0.00393021
0.100524
0.00390207
0.100289
0.00388844
0.100084
0.00388148
0.0999112
0.00386943
0.0997692
0.00385137
0.099657
0.00381737
0.0995692
0.00377371
0.0995034
0.00370546
0.0994512
0.00362966
0.0994108
0.00352094
0.0993716
0.00341744
0.0993337
0.00327173
0.0992858
0.0031607
0.0992316
0.00299152
0.0991639
0.00291048
0.00273881
0.108609
0.00401037
-0.108699
0.108619
0.00398128
0.108636
0.00395689
0.108656
0.00391022
0.10869
0.00386743
0.108742
0.00383722
0.108806
0.00381717
0.108881
0.00379381
0.108966
0.00376725
0.109057
0.00372559
0.109153
0.00367852
0.10925
0.00360809
0.109343
0.00353615
0.109432
0.00343215
0.109509
0.00334022
0.109575
0.00320582
0.109624
0.00311158
0.109658
0.0029579
0.109677
0.00289198
0.00273563
0.113965
0.00398065
-0.113936
0.114093
0.00385411
0.114262
0.00378742
0.114444
0.00372783
0.11464
0.00367223
0.114852
0.00362537
0.115078
0.00359067
0.115316
0.00355626
0.115559
0.00352344
0.115807
0.00347835
0.116053
0.00343232
0.116295
0.00336565
0.116529
0.00330227
0.116752
0.00320959
0.116959
0.00313278
0.117149
0.00301632
0.11732
0.0029401
0.117469
0.00280869
0.117605
0.00275655
0.00262201
0.118564
0.00381057
-0.118394
0.118773
0.00364497
0.119019
0.00354162
0.119284
0.00346307
0.119561
0.00339531
0.119851
0.00333474
0.120156
0.00328628
0.120472
0.00324046
0.120795
0.00320024
0.121122
0.00315125
0.121449
0.003105
0.121773
0.00304178
0.12209
0.0029851
0.122396
0.0029035
0.12269
0.0028391
0.122966
0.00274048
0.123227
0.00267888
0.123466
0.00256979
0.123694
0.00252835
0.00241724
0.123046
0.00356855
-0.122804
0.1233
0.00339098
0.123579
0.00326257
0.123877
0.00316493
0.124188
0.00308518
0.124508
0.00301396
0.12484
0.00295451
0.125182
0.00289881
0.125531
0.00285117
0.125884
0.00279804
0.126239
0.00275027
0.126591
0.00268933
0.12694
0.00263673
0.127279
0.00256401
0.12761
0.0025083
0.127926
0.00242447
0.128231
0.00237336
0.128518
0.00228301
0.128797
0.00224937
0.00215824
0.127734
0.00329808
-0.127464
0.128009
0.00311629
0.128298
0.00297352
0.128601
0.00286157
0.128915
0.00277139
0.129237
0.00269186
0.129568
0.00262419
0.129906
0.00256089
0.13025
0.00250686
0.130598
0.00245003
0.130948
0.00240031
0.131296
0.00234086
0.131642
0.00229068
0.131982
0.0022247
0.132315
0.00217494
0.132637
0.00210252
0.132951
0.00205881
0.133252
0.00198297
0.133546
0.00195493
0.00187917
0.132686
0.00301015
-0.132398
0.132971
0.002831
0.133261
0.00268357
0.133559
0.00256375
0.133864
0.0024663
0.134175
0.00238094
0.134491
0.00230779
0.134813
0.00223948
0.135139
0.00218092
0.135467
0.00212153
0.135797
0.00207032
0.136126
0.00201222
0.136453
0.00196385
0.136774
0.00190319
0.137091
0.00185786
0.1374
0.00179424
0.137702
0.00175603
0.137994
0.00169125
0.138282
0.00166738
0.00160338
0.137808
0.00270794
-0.137506
0.138101
0.00253787
0.138392
0.00239296
0.138684
0.00227123
0.13898
0.00217057
0.139279
0.00208245
0.13958
0.00200674
0.139883
0.00193627
0.140188
0.0018756
0.140494
0.00181538
0.140801
0.00176391
0.141105
0.0017077
0.141408
0.0016614
0.141705
0.00160551
0.141999
0.00156406
0.142286
0.0015077
0.142568
0.00147402
0.142841
0.0014181
0.143111
0.00139761
0.00134313
0.142948
0.00239323
-0.142633
0.143251
0.00223545
0.143546
0.00209761
0.143838
0.00197904
0.144129
0.00187949
0.144419
0.00179211
0.144709
0.00171696
0.144998
0.00164726
0.145287
0.00158713
0.145574
0.00152827
0.14586
0.00147823
0.146142
0.00142506
0.146422
0.00138165
0.146697
0.00133077
0.146967
0.00129332
0.147231
0.00124368
0.147491
0.0012142
0.147743
0.00116613
0.147992
0.00114863
0.00110264
0.147956
0.00206443
-0.147627
0.148271
0.00192063
0.148575
0.00179313
0.148872
0.00168191
0.149164
0.00158757
0.149452
0.00150453
0.149736
0.00143306
0.150016
0.00136704
0.150293
0.00131009
0.150566
0.00125489
0.150836
0.00120821
0.151102
0.00115958
0.151363
0.00112021
0.151619
0.00107514
0.15187
0.00104219
0.152114
0.000999472
0.152354
0.000974237
0.152586
0.0009339
0.152816
0.000919273
0.000881633
0.152732
0.00172045
-0.152388
0.15306
0.0015927
0.153375
0.00147842
0.153679
0.00137805
0.153974
0.00129244
0.154261
0.00121697
0.154542
0.00115206
0.154817
0.00109238
0.155086
0.00104102
0.155349
0.000991704
0.155607
0.000950206
0.155859
0.00090773
0.156106
0.000873588
0.156346
0.000835348
0.15658
0.000807537
0.156807
0.000772351
0.15703
0.000751568
0.157245
0.000719339
0.157456
0.000707557
0.000678603
0.15726
0.00136754
-0.156907
0.157594
0.00125823
0.157913
0.00115968
0.158218
0.00107277
0.158512
0.000998509
0.158796
0.000933155
0.159071
0.000877082
0.159338
0.000825872
0.159597
0.000781977
0.159848
0.000740311
0.160093
0.000705435
0.16033
0.000670426
0.160561
0.00064243
0.160785
0.000611911
0.161002
0.000589703
0.161212
0.000562616
0.161417
0.000546419
0.161614
0.000522682
0.161808
0.000513694
0.00049373
0.161587
0.0010238
-0.161244
0.161911
0.000934338
0.162218
0.000852967
0.16251
0.00078093
0.162789
0.000719402
0.163057
0.000665559
0.163314
0.00061959
0.163562
0.000578033
0.163801
0.000542588
0.164032
0.000509485
0.164256
0.00048191
0.164471
0.000454964
0.16468
0.000433443
0.164881
0.00041092
0.165076
0.000394346
0.165264
0.000375384
0.165447
0.000363614
0.165621
0.000348222
0.165793
0.000341834
0.00033056
0.165745
0.000715895
-0.165437
0.166034
0.000645741
0.166305
0.000581309
0.166562
0.000524043
0.166806
0.000475195
0.167039
0.000432856
0.167262
0.000396964
0.167475
0.000364995
0.167679
0.000337869
0.167876
0.000313116
0.168065
0.000292563
0.168247
0.000273268
0.168422
0.000257775
0.168591
0.00024261
0.168754
0.00023111
0.16891
0.000219424
0.169062
0.000211525
0.169207
0.00020343
0.169349
0.000199257
0.000195378
0.169641
0.000466598
-0.169392
0.169873
0.00041346
0.17009
0.000364313
0.170294
0.000320512
0.170486
0.000283225
0.170667
0.000251305
0.17084
0.000224462
0.171004
0.000201004
0.171161
0.000181188
0.17131
0.000163656
0.171453
0.000149098
0.171591
0.000136197
0.171723
0.000125682
0.171849
0.000116441
0.171971
0.000108999
0.172087
0.00010295
0.172201
9.8064e-05
0.172309
9.53837e-05
0.172415
9.28978e-05
9.42205e-05
0.173061
0.000282481
-0.172877
0.17323
0.000243793
0.173387
0.000207992
0.173531
0.000176141
0.173665
0.000149145
0.17379
0.000126339
0.173907
0.000107293
0.174017
9.09926e-05
0.174121
7.7263e-05
0.174219
6.55412e-05
0.174313
5.57661e-05
0.174401
4.77171e-05
0.174486
4.09874e-05
0.174566
3.59425e-05
0.174644
3.14459e-05
0.174718
2.90861e-05
0.17479
2.63065e-05
0.174858
2.68121e-05
0.174926
2.54753e-05
2.94134e-05
0.175785
0.000154872
-0.175657
0.1759
0.000128824
0.176003
0.000104975
0.176095
8.41406e-05
0.176177
6.66231e-05
0.176252
5.19852e-05
0.176319
3.98095e-05
0.176381
2.95826e-05
0.176437
2.09992e-05
0.176488
1.39094e-05
0.176536
7.93579e-06
0.176581
3.40149e-06
0.176622
-5.09858e-07
0.176661
-2.89399e-06
0.176698
-5.3562e-06
0.176733
-5.79355e-06
0.176766
-7.20753e-06
0.176799
-5.56039e-06
0.17683
-6.1775e-06
-2.03251e-06
0.177677
6.88771e-05
-0.177591
0.177751
5.39438e-05
0.177815
4.1505e-05
0.177868
3.12068e-05
0.177912
2.27004e-05
0.177948
1.56311e-05
0.177978
9.72646e-06
0.178003
4.79559e-06
0.178023
7.16679e-07
0.17804
-2.57873e-06
0.178053
-5.4545e-06
0.178064
-7.45056e-06
0.178073
-9.21078e-06
0.17808
-1.0083e-05
0.178086
-1.11351e-05
0.178091
-1.09923e-05
0.178095
-1.15524e-05
0.1781
-1.03048e-05
0.178104
-1.05205e-05
-7.93723e-06
0.178651
-0.178582
0.178705
0.178746
0.178777
0.1788
0.178816
0.178826
0.17883
0.178831
0.178828
0.178823
0.178816
0.178806
0.178796
0.178785
0.178774
0.178763
0.178752
0.178742
0.0900052
0.0158521
-0.0888068
0.0912643
0.0254695
0.0926051
0.034971
0.093979
0.0442499
0.0954294
0.0530356
0.0968105
0.061363
0.0978968
0.068914
0.0986954
0.0752026
0.0960551
0.0815873
0.0799942
0.0925374
0.0147569
-0.0914422
0.0937364
0.0242705
0.0950781
0.0336294
0.0965261
0.0428019
0.0980386
0.0515231
0.0997708
0.0596308
0.101103
0.0675821
0.103081
0.0732245
0.103401
0.0812671
0.0816614
0.095339
0.013758
-0.0943401
0.0964933
0.0231162
0.0977956
0.032327
0.0993158
0.0412817
0.100843
0.0499958
0.102795
0.0576785
0.104456
0.0659217
0.106574
0.0711067
0.108539
0.0793012
0.0815021
0.0983099
0.0128302
-0.0973822
0.0994588
0.0219674
0.10075
0.0310354
0.102338
0.0396944
0.103948
0.048386
0.105929
0.0556974
0.107918
0.0639321
0.10988
0.0691455
0.112444
0.0767366
0.0800105
0.101375
0.0119447
-0.100489
0.10254
0.0208019
0.103883
0.0296921
0.105527
0.0380504
0.107299
0.0466138
0.109259
0.0537377
0.111496
0.0616954
0.113507
0.0671345
0.116177
0.0740662
0.0777937
0.104468
0.0110734
-0.103596
0.105657
0.019613
0.107099
0.0282494
0.108813
0.0363366
0.110783
0.0446439
0.112833
0.0516881
0.115264
0.0592644
0.117535
0.0648626
0.120234
0.0713676
0.0752236
0.107523
0.0101965
-0.106646
0.108745
0.0183909
0.110306
0.0266887
0.112132
0.0345101
0.114305
0.0424719
0.116575
0.0494175
0.119203
0.0566367
0.121801
0.062264
0.124644
0.0685252
0.0724036
0.110485
0.0093055
-0.109595
0.111756
0.0171207
0.113434
0.0250103
0.115417
0.0325275
0.117789
0.0400994
0.120343
0.0468642
0.123209
0.0537698
0.126149
0.059324
0.129283
0.0653916
0.0692885
0.113325
0.0084009
-0.112421
0.114655
0.0157907
0.116443
0.0232221
0.1186
0.0303711
0.121174
0.0375255
0.124017
0.0440213
0.127176
0.05061
0.130479
0.0560213
0.134008
0.0618625
0.0657909
0.11605
0.0074875
-0.115137
0.11744
0.0144011
0.119327
0.0213351
0.121648
0.0280502
0.124421
0.0347524
0.127538
0.0409045
0.131021
0.0471264
0.134703
0.0523398
0.138676
0.0578893
0.0618336
0.118707
0.0065736
-0.117793
0.120144
0.0129639
0.122115
0.0193643
0.124575
0.0255897
0.127534
0.0317935
0.130898
0.0375403
0.134697
0.0433274
0.13875
0.0482868
0.143168
0.0534717
0.0573744
0.121369
0.0056702
-0.120465
0.122834
0.0114985
0.124869
0.0173295
0.12744
0.0230189
0.130558
0.0286752
0.134135
0.0339636
0.13821
0.0392517
0.142605
0.0438922
0.147431
0.0486456
0.0524172
0.124111
0.00479501
-0.123236
0.125582
0.0100277
0.127659
0.0152526
0.130314
0.0203644
0.13356
0.0254288
0.137315
0.0302084
0.141621
0.0349463
0.146316
0.039197
0.151495
0.0434666
0.0470053
0.126945
0.0039738
-0.126124
0.128403
0.00856988
0.130505
0.0131505
0.133227
0.0176427
0.136579
0.0220764
0.140491
0.0262967
0.144991
0.0304457
0.149951
0.034237
0.155434
0.037984
0.0411955
0.129762
0.00321827
-0.129006
0.131199
0.00713277
0.13332
0.0110289
0.136106
0.0148569
0.139558
0.0186243
0.14362
0.0222346
0.148304
0.0257619
0.15351
0.029031
0.159271
0.0322227
0.0350298
0.132344
0.00252082
-0.131646
0.133768
0.00570893
0.135916
0.008881
0.138772
0.0120009
0.142329
0.0150672
0.146543
0.0180199
0.151412
0.0208932
0.156857
0.0235855
0.162891
0.0261895
0.0285287
0.134491
0.00185946
-0.133829
0.135916
0.00428379
0.1381
0.00669701
0.141029
0.00907148
0.144692
0.0114045
0.149053
0.0136585
0.1541
0.0158463
0.159772
0.0179141
0.166062
0.0198989
0.0217142
0.136132
0.00121853
-0.135491
0.137564
0.00285148
0.139783
0.00447835
0.142775
0.00607892
0.146528
0.00765169
0.151012
0.00917425
0.156209
0.0106496
0.16207
0.0120528
0.168577
0.0133921
0.0146343
0.137289
0.000600081
-0.13667
0.138719
0.00142087
0.140957
0.0022408
0.143989
0.00304695
0.147802
0.00383913
0.152369
0.00460678
0.157669
0.00534978
0.163662
0.00605918
0.170321
0.00673374
0.00736449
0.13792
-0.13732
0.139341
0.141582
0.144629
0.148468
0.153075
0.158425
0.164484
0.171217
0.0424244
0.0527832
-0.0468196
-0.048388
0.036469
0.0516175
-0.0456621
0.0308834
0.0508987
-0.0453131
0.0255808
0.0507195
-0.0454168
0.0204542
0.0509967
-0.0458701
0.0154437
0.0517215
-0.046711
0.0105396
0.0527707
-0.0478666
0.00587539
0.0529979
-0.0483337
0.00196136
0.0481151
-0.0442011
0.0276546
-0.0256932
0.0403111
0.0586423
-0.0461703
0.0345618
0.0573668
0.0290673
0.0563931
0.0238662
0.0559206
0.0188894
0.0559734
0.0140652
0.0565457
0.00938993
0.0574459
0.00503719
0.0573507
0.00155099
0.0516013
0.0292056
0.0373271
0.0641402
-0.042825
0.0318857
0.0628082
0.0266215
0.0616573
0.0216152
0.0609269
0.0168506
0.060738
0.0122767
0.0611196
0.00791061
0.061812
0.00397414
0.0612872
0.0010372
0.0545382
0.0302428
0.0332972
0.0692417
-0.0383987
0.0282869
0.0678184
0.0234078
0.0665365
0.0187379
0.0655968
0.0142949
0.065181
0.010061
0.0653535
0.00609305
0.06578
0.00268413
0.0646961
0.000417087
0.0568053
0.0306598
0.0283093
0.0738807
-0.0329482
0.0237955
0.0723323
0.0194104
0.0709215
0.0152027
0.0698046
0.0111977
0.069186
0.00740847
0.0691427
0.00393752
0.0692509
0.00115147
0.0674821
-0.000270237
0.058227
0.0303896
0.0223903
0.0779453
-0.0264549
0.018469
0.0762536
0.0146764
0.0747141
0.0110357
0.0734453
0.00757291
0.0726487
0.00433377
0.0723819
0.00148629
0.0720984
-0.000551401
0.0695198
-0.000970141
0.0586457
0.0294195
0.0156568
0.0813178
-0.0190292
0.012412
0.0794983
0.00928818
0.077838
0.006298
0.0764355
0.00346769
0.075479
0.000876248
0.0749733
-0.00121904
0.0741937
-0.00226039
0.0705612
-0.0016876
0.0580729
0.0277319
0.00821032
0.0838991
-0.0107916
0.00570947
0.0819992
0.00333589
0.0802115
0.00107337
0.078698
-0.00105579
0.0776082
-0.00290699
0.0768245
-0.00412731
0.075414
-0.00411177
0.0705456
-0.00238152
0.0563427
0.0253503
0.000123461
0.0857309
-0.00195528
-0.00151772
0.0836403
-0.00308815
0.081782
-0.00458653
0.0801964
-0.00594119
0.0789628
-0.00695395
0.0778373
-0.00717929
0.0756394
-0.00595427
0.0693206
-0.00299213
0.0533805
0.0223582
-0.00828307
0.00747621
-0.00909715
-0.00985629
-0.0105456
-0.01107
-0.0111479
-0.0102327
-0.0076617
-0.00344935
0.034456
0.00326772
-0.0377237
0.0310613
0.00339474
0.0275194
0.00354187
0.0238095
0.00370994
0.0199029
0.00390655
0.0157644
0.0041385
0.0113698
0.00439458
0.00679877
0.00457107
0.00252192
0.00427684
0.00252192
0.0350049
0.00666304
-0.0384002
0.0314978
0.00690182
0.0278587
0.00718104
0.0240662
0.00750237
0.0200914
0.00788134
0.0158978
0.00833211
0.0114582
0.00883423
0.00684878
0.00918048
0.00254707
0.00857856
0.005069
0.0360406
0.0103007
-0.0396783
0.03232
0.0106225
0.0284956
0.0110054
0.0245457
0.0114523
0.0204402
0.0119868
0.016141
0.0126313
0.0116183
0.0133569
0.00694347
0.0138553
0.00258436
0.0129377
0.00765336
0.0374438
0.0142683
-0.0414113
0.0334312
0.014635
0.0293529
0.0150838
0.0251867
0.0156184
0.0209019
0.0162717
0.0164584
0.0170748
0.011823
0.0179923
0.00706042
0.0186179
0.00263043
0.0173677
0.0102838
0.0390508
0.0186189
-0.0434014
0.034697
0.0189887
0.0303208
0.01946
0.0259016
0.0200377
0.0214077
0.0207655
0.0167971
0.0216853
0.012033
0.0227565
0.00717396
0.0234769
0.00267233
0.0218693
0.0129561
0.0406761
0.0233631
-0.0454203
0.0359656
0.0236993
0.0312742
0.0241513
0.0265873
0.0247246
0.0218744
0.0254784
0.0170916
0.0264682
0.012199
0.0276491
0.00725121
0.0284246
0.00269456
0.0264259
0.0156507
0.0421031
0.0284879
-0.0472278
0.0370434
0.0287589
0.0320542
0.0291406
0.0271227
0.0296561
0.0222108
0.0303903
0.0172723
0.0314067
0.0122691
0.0326523
0.00725716
0.0334366
0.00268068
0.0310024
0.0183314
0.0432238
0.0339597
-0.0486956
0.0378191
0.0341636
0.0325527
0.0344069
0.0274061
0.0348028
0.0223271
0.0354692
0.0172669
0.0364669
0.0121896
0.0377296
0.00715623
0.03847
0.00261429
0.0355444
0.0209457
0.0436274
0.0398865
-0.0495542
0.0379579
0.039833
0.0325555
0.0398093
0.0272922
0.0400661
0.0221144
0.0406471
0.0169928
0.0415885
0.0119007
0.0428217
0.0069106
0.0434601
0.00247947
0.0399755
0.0234251
0.0434412
-0.0503742
0.0376121
0.0321084
0.0267576
0.0215346
0.0164122
0.0113673
0.00649365
0.00226808
0.0414308
-0.000117039
0.0415468
-0.000116004
0.0416601
-0.000113297
0.0417661
-0.000105989
0.0418607
-9.46396e-05
0.0419401
-7.94142e-05
0.042
-5.98808e-05
0.0420352
-3.51962e-05
0.0420381
-2.91202e-06
0.0420097
2.84473e-05
0.0419423
6.73923e-05
0.0418279
0.000114448
0.0416573
0.000170516
0.0414204
0.000236982
0.0411047
0.000315649
0.040696
0.000408732
0.0401769
0.000519048
0.039527
0.00064993
0.0387216
0.000805405
0.000997854
0.0422686
-0.000234827
0.0423839
-0.000231248
0.0424947
-0.000224115
0.0425975
-0.000208771
0.0426886
-0.000185803
0.0427643
-0.000155064
0.04282
-0.000115621
0.0428506
-6.57633e-05
0.0428476
7.0296e-08
0.0428141
6.1977e-05
0.0427403
0.000141126
0.0426184
0.0002364
0.0424392
0.000349727
0.0421922
0.000483963
0.0418651
0.00064274
0.0414434
0.000830457
0.0409096
0.00105279
0.0402432
0.00131632
0.0394198
0.00162889
0.00201738
0.0439159
-0.000343332
0.0440221
-0.000337502
0.0441243
-0.000326271
0.0442182
-0.000302649
0.0442998
-0.000267444
0.0443651
-0.000220348
0.0444093
-0.00015986
0.0444267
-8.30979e-05
0.0444137
1.30234e-05
0.0443663
0.000109369
0.044277
0.000230447
0.0441375
0.000375924
0.0439385
0.000548716
0.0436693
0.000753133
0.0433174
0.000994668
0.0428679
0.0012799
0.0423034
0.00161737
0.0416028
0.00201689
0.0407425
0.00248914
0.00308157
0.046312
-0.000431472
0.0463979
-0.000423399
0.0464798
-0.000408196
0.0465533
-0.000376099
0.0466137
-0.000327872
0.0466565
-0.0002632
0.0466768
-0.000180131
0.0466685
-7.48217e-05
0.046633
4.85209e-05
0.046559
0.00018343
0.0464402
0.000349217
0.0462685
0.000547669
0.0460343
0.000782924
0.0457266
0.00106082
0.0453326
0.00138868
0.0448371
0.00177537
0.0442223
0.00223217
0.0434664
0.00277277
0.0425481
0.00340748
0.00421831
0.0493751
-0.000482172
0.0494233
-0.000471586
0.049467
-0.000451905
0.0495017
-0.000410788
0.0495226
-0.000348727
0.0495245
-0.000265178
0.0495026
-0.00015817
0.0494457
-1.79836e-05
0.049368
0.000126274
0.0492474
0.00030399
0.0490786
0.000518069
0.0488535
0.000772773
0.0485625
0.00107388
0.0481943
0.00142908
0.0477357
0.00184727
0.0471709
0.00234018
0.0464822
0.00292082
0.0456454
0.00360953
0.0446444
0.00440854
0.0054613
0.0530112
-0.000471464
0.0529971
-0.000457459
0.0529765
-0.000431346
0.0529451
-0.000379347
0.0528978
-0.000301476
0.0528296
-0.000196968
0.0527317
-6.02775e-05
0.0526175
9.62407e-05
0.0524649
0.000278918
0.0522676
0.000501235
0.0520195
0.000766212
0.0517119
0.00108036
0.0513353
0.00145042
0.0508776
0.00188683
0.0503259
0.00239898
0.0496623
0.00300373
0.048871
0.00371214
0.0479219
0.00455866
0.046809
0.00552138
0.00685005
0.0571245
-0.000366675
0.0570144
-0.000347343
0.0568945
-0.000311495
0.0567626
-0.000247452
0.056613
-0.000151847
0.056431
-1.49435e-05
0.0562388
0.000131839
0.0560169
0.000318166
0.0557529
0.000542941
0.0554427
0.000811451
0.0550796
0.00112931
0.054654
0.00150591
0.0541571
0.00194735
0.0535748
0.00246911
0.0528966
0.00307721
0.0521002
0.00380015
0.0511756
0.00463673
0.0500792
0.00565502
0.0488208
0.00677983
0.008443
0.0616256
-0.000123154
0.0613765
-9.82416e-05
0.0611105
-4.54699e-05
0.0608258
3.72321e-05
0.0605275
0.000146464
0.0602194
0.000293182
0.0598764
0.000474794
0.0594982
0.000696403
0.0590798
0.00096135
0.0586137
0.00127753
0.0580937
0.00164933
0.0575087
0.00209086
0.0568518
0.00260434
0.0561043
0.00321654
0.0552605
0.00392103
0.0542868
0.00477384
0.0531915
0.00573201
0.0519076
0.00693898
0.0504776
0.00820978
0.0102251
0.0664321
0.000308017
0.0659877
0.000346111
0.0655328
0.000409508
0.0650653
0.000504697
0.0645761
0.000635611
0.0640623
0.000807035
0.0635183
0.00101878
0.0629391
0.00127561
0.0623202
0.00158028
0.061653
0.00194474
0.0609323
0.00236998
0.0601449
0.00287829
0.0592884
0.00346086
0.0583387
0.00416623
0.0573014
0.00495826
0.0561139
0.0059614
0.0548167
0.00702922
0.0532614
0.00849426
0.0516321
0.00983904
0.012303
0.0715483
0.00104417
0.0708437
0.00105069
0.0701392
0.00111405
0.0694196
0.00122429
0.0686782
0.00137703
0.0679115
0.0015737
0.0671168
0.0018135
0.0662887
0.00210371
0.0654236
0.0024454
0.0645122
0.00285611
0.0635512
0.00333095
0.0625243
0.00390519
0.0614352
0.00455002
0.0602517
0.00534974
0.0590046
0.0062053
0.0576184
0.00734763
0.0562179
0.00842973
0.0545183
0.0101938
0.0529451
0.0114123
0.0148738
0.0710733
0.00100741
0.0710909
0.0010331
0.0710906
0.00111437
0.0710809
0.00123397
0.0710647
0.00139324
0.0710431
0.0015953
0.0710202
0.00183643
0.070998
0.00212587
0.0709817
0.00246168
0.0709713
0.00286651
0.0709774
0.0033249
0.070998
0.00388456
0.0710576
0.00449039
0.0711437
0.00526364
0.0713177
0.00603133
0.071535
0.00713034
0.0719527
0.00801205
0.0724808
0.00966569
0.0736095
0.0102836
0.012857
0.0756264
0.0763979
0.000947895
0.0764104
0.00102061
0.0764122
0.00111254
0.07641
0.00123616
0.0764007
0.00140252
0.076386
0.00161
0.0763726
0.0018499
0.0763637
0.00213472
0.0763645
0.00246085
0.0763764
0.0028546
0.0764093
0.003292
0.0764663
0.00382755
0.0765659
0.00439083
0.0767139
0.00511562