/*--------------------------------*- C++ -*----------------------------------*\
| =========                 |                                                 |
| \\      /  F ield         | OpenFOAM: The Open Source CFD Toolbox           |
|  \\    /   O peration     | Version:  4.1                                   |
|   \\  /    A nd           | Web:      www.OpenFOAM.org                      |
|    \\/     M anipulation  |                                                 |
\*---------------------------------------------------------------------------*/
FoamFile
{
    version     2.0;
    format      ascii;
    class       surfaceScalarField;
    location    "2.5";
    object      phi;
}
// * * * * * * * * * * * * * * * * * * * * * * * * * * * * * * * * * * * * * //

dimensions      [0 3 -1 0 0 0 0];

internalField   nonuniform List<scalar> 
3890
(
0.000699008
-0.00348784
0.00278883
0.00241744
-0.0109452
0.00922674
0.00480999
-0.0177501
0.0153576
0.00755218
-0.0232615
0.0205193
0.0103868
-0.0272982
0.0244635
0.0131446
-0.02997
0.0272122
0.0157352
-0.031528
0.0289374
0.0181236
-0.0322541
0.0298658
0.0203162
-0.0324134
0.0302208
-0.032267
0.0302503
0.0223329
0.000784393
-0.00427223
0.00263558
-0.0127964
0.0051223
-0.0202368
0.00787286
-0.0260121
0.0106202
-0.0300455
0.0132111
-0.0325609
0.0155847
-0.0339016
0.0177424
-0.0344118
0.0197193
-0.0343903
-0.0340855
0.0215378
0.000864596
-0.00513683
0.00282285
-0.0147546
0.00535612
-0.0227701
0.00805454
-0.0287105
0.0106533
-0.0326443
0.0130238
-0.0349314
0.0151344
-0.0360122
0.0170084
-0.0362858
0.0186885
-0.0360704
-0.035602
0.020205
0.000936348
-0.00607318
0.00296823
-0.0167865
0.0054932
-0.0252951
0.00807678
-0.0312941
0.0104707
-0.0350382
0.01258
-0.0370407
0.0144061
-0.0378383
0.0159966
-0.0378763
0.01741
-0.0374838
-0.0368838
0.0186918
0.000995827
-0.007069
0.00306054
-0.0188512
0.00551752
-0.027752
0.00792442
-0.033701
0.0100627
-0.0371765
0.0118762
-0.0388543
0.0133986
-0.0393606
0.0146977
-0.0391754
0.0158423
-0.0386284
-0.0379235
0.016882
0.00103889
-0.00810789
0.00308942
-0.0209017
0.00541744
-0.03008
0.00759083
-0.0358744
0.009432
-0.0390177
0.0109265
-0.0403488
0.0121366
-0.0405707
0.0131452
-0.040184
0.0140255
-0.0395087
-0.0387254
0.0148273
0.0010614
-0.00916929
0.00304674
-0.0228871
0.00518683
-0.0322201
0.00707764
-0.0377652
0.00859054
-0.0405306
0.00975157
-0.0415098
0.0106467
-0.0414658
0.0113676
-0.0409049
0.0119875
-0.0401287
-0.0392916
0.0125536
0.00105979
-0.0102291
0.002928
-0.0247553
0.00482607
-0.0341182
0.00639506
-0.0393342
0.00755928
-0.0416948
0.00838126
-0.0423318
0.00896399
-0.0420485
0.00940232
-0.0413432
0.00976549
-0.0404918
-0.0396223
0.0100962
0.00103126
-0.0112603
0.00273177
-0.0264558
0.00434164
-0.0357281
0.00556041
-0.0405529
0.0063655
-0.0424999
0.00684985
-0.0428161
0.00712671
-0.0423254
0.00728915
-0.0415056
0.00739971
-0.0406024
-0.0397174
0.00749483
0.000974209
-0.0122346
0.00246048
-0.0279421
0.00374555
-0.0370132
0.00459636
-0.0414037
0.00504044
-0.0429439
0.0051938
-0.0429695
0.00517361
-0.0423052
0.00506748
-0.0413995
0.00493051
-0.0404654
0.00479268
-0.0395796
5.58433e-05
-5.58428e-05
0.000533545
-0.000477701
0.00153772
-0.00100418
0.00307412
-0.0015364
0.00509714
-0.00202302
0.00753485
-0.00243771
0.0103044
-0.0027696
0.0133217
-0.00301727
0.0165049
-0.00318323
-0.00326163
0.0197666
7.20005e-05
-0.000127844
0.000582146
-0.000987846
0.00162688
-0.00204891
0.00320546
-0.00311497
0.00526743
-0.004085
0.00773716
-0.00490744
0.0105294
-0.00556183
0.0135589
-0.00604679
0.0167447
-0.006369
-0.00651921
0.0200023
0.000103425
-0.000231269
0.000677171
-0.00156159
0.00180078
-0.00317252
0.00346164
-0.00477583
0.00559932
-0.00622268
0.00813047
-0.00743859
0.0109649
-0.00839629
0.0140156
-0.0090975
0.0172029
-0.00955628
-0.00976467
0.0204484
0.000149195
-0.000380464
0.000815447
-0.00222784
0.00205347
-0.00441055
0.00383238
-0.00655473
0.00607674
-0.00846704
0.00869198
-0.0100538
0.0115812
-0.0112855
0.0146553
-0.0121716
0.0178372
-0.0127382
-0.0129847
0.0210573
0.000207591
-0.000588056
0.000991798
-0.00301205
0.00237466
-0.00579341
0.0043004
-0.00848047
0.00667368
-0.0108403
0.00938573
-0.0127659
0.012332
-0.0142317
0.0154221
-0.0152617
0.0185834
-0.0158995
-0.0161583
0.021757
0.000276499
-0.000864555
0.00119955
-0.0039351
0.00275059
-0.00734445
0.00484224
-0.0105721
0.00735471
-0.0133528
0.0101631
-0.0155742
0.0131555
-0.0172242
0.0162427
-0.0183489
0.019359
-0.0190158
-0.0192574
0.0224581
0.000353593
-0.00121815
0.00143084
-0.00501234
0.00316446
-0.00907808
0.00542889
-0.0128366
0.00807627
-0.0160002
0.0109652
-0.0184631
0.0139785
-0.0202375
0.017031
-0.0214014
0.0200682
-0.022053
-0.02225
0.0230608
0.00043651
-0.00165466
0.00167702
-0.00625285
0.00359716
-0.0109982
0.00602702
-0.0152664
0.00878859
-0.0187618
0.0117259
-0.0214004
0.014721
-0.0232326
0.017697
-0.0243774
0.0206131
-0.0249691
-0.0250974
0.0234605
0.000523023
-0.00217768
0.00192921
-0.00765904
0.00402847
-0.0130975
0.00660127
-0.0178392
0.00943926
-0.0215997
0.0123759
-0.024337
0.0152986
-0.0261553
0.0181464
-0.0272252
0.0208987
-0.0277214
-0.0277608
0.023562
0.00061115
0.00217885
0.00443892
0.00711902
0.00998282
0.012858
0.01564
0.0182806
0.02078
0.0232696
0.0218365
-0.0020699
0.0237097
-0.00187325
0.0253915
-0.00168175
0.0268889
-0.00149747
0.0282109
-0.00132193
0.0293685
-0.00115767
0.030375
-0.00100649
0.0312441
-0.000869052
0.0319893
-0.000745189
0.0326236
-0.000634282
0.033159
-0.000535434
0.0336066
-0.000447604
0.0339763
-0.000369702
0.034277
-0.000300664
0.0345165
-0.000239489
0.0347017
-0.000185254
0.0348388
-0.000137113
0.0349331
-9.42948e-05
0.0349894
-5.62785e-05
-1.93363e-05
0.0220155
-0.00408318
0.0238424
-0.00370007
0.0254879
-0.00332732
0.0269573
-0.00296687
0.0282575
-0.00262207
0.0293985
-0.00229871
0.0303927
-0.00200073
0.0312532
-0.00172953
0.0319929
-0.0014849
0.0326244
-0.00126572
0.0331592
-0.00107026
0.0336081
-0.000896498
0.0339807
-0.000742299
0.0342856
-0.000605577
0.0345305
-0.000484363
0.0347221
-0.000376838
0.0348663
-0.000281348
0.0349683
-0.000196341
0.0350331
-0.000120993
-4.7009e-05
0.0223521
-0.00598688
0.0240893
-0.00543732
0.0256652
-0.0049032
0.0270806
-0.00438228
0.0283389
-0.0038804
0.0294483
-0.00340801
0.0304193
-0.00297174
0.0312637
-0.00257396
0.0319934
-0.00221463
0.03262
-0.0018923
0.0331543
-0.0016046
0.0336065
-0.00134861
0.0339854
-0.00112125
0.0342993
-0.000919478
0.0345554
-0.00074043
0.03476
-0.000581452
0.0349188
-0.000440131
0.0350366
-0.000314176
0.0351183
-0.000202634
-9.22422e-05
0.022804
-0.00773357
0.0244143
-0.00704767
0.0258918
-0.0063807
0.0272311
-0.00572161
0.0284309
-0.00508019
0.0294963
-0.00447343
0.0304358
-0.00391121
0.031259
-0.00339719
0.0319763
-0.00293188
0.0325978
-0.00251382
0.0331334
-0.00214016
0.033592
-0.00180726
0.033982
-0.00151122
0.0343107
-0.00124815
0.0345846
-0.00101441
0.0348098
-0.000806572
0.0349912
-0.000621558
0.0351334
-0.000456375
0.0352409
-0.000310179
-0.000163953
0.0233086
-0.00928522
0.0247634
-0.00850244
0.026121
-0.0077383
0.027368
-0.00696865
0.0284977
-0.00620981
0.0295116
-0.00548733
0.0304152
-0.0048148
0.0312156
-0.0041976
0.031921
-0.00363731
0.03254
-0.00313283
0.0330809
-0.00268107
0.0335515
-0.00227788
0.033959
-0.00191868
0.0343098
-0.00159894
0.0346097
-0.00131432
0.0348639
-0.00106078
0.035077
-0.000834649
0.0352529
-0.000632266
0.0353959
-0.000453226
-0.000271448
0.0237894
-0.0106164
0.0250707
-0.0097838
0.0262957
-0.00896322
0.0274413
-0.00811426
0.0284955
-0.007264
0.0294559
-0.00644781
0.0303244
-0.00568323
0.0311048
-0.00497804
0.031803
-0.00433553
0.0324256
-0.00375535
0.032979
-0.00323447
0.0334695
-0.00276845
0.0339031
-0.00235229
0.0342852
-0.00198098
0.0346206
-0.0016497
0.0349137
-0.00135392
0.0351686
-0.00108951
0.0353884
-0.000852128
0.0355774
-0.000642215
-0.00042491
0.024164
-0.0117197
0.0252674
-0.0108872
0.0263562
-0.010052
0.0273991
-0.00915712
0.0283793
-0.00824419
0.0292902
-0.00735873
0.0301293
-0.00652236
0.0308973
-0.00574606
0.0315972
-0.00503541
0.0322331
-0.0043912
0.0328094
-0.00381078
0.0333307
-0.00328976
0.0338014
-0.00282301
0.0342257
-0.00240531
0.0346076
-0.00203159
0.0349507
-0.00169704
0.0352584
-0.00139722
0.0355334
-0.00112705
0.0357795
-0.000888315
-0.000635296
0.0243461
-0.0126053
0.0252803
-0.0118214
0.026242
-0.0110137
0.027191
-0.0101061
0.0281071
-0.00916026
0.0289789
-0.0082306
0.0297999
-0.00734327
0.0305672
-0.0065134
0.031281
-0.00574922
0.0319428
-0.00505297
0.0325548
-0.00442277
0.0331196
-0.00385461
0.0336402
-0.00334356
0.0341194
-0.00288451
0.0345602
-0.00247243
0.0349656
-0.00210244
0.0353384
-0.00176999
0.0356806
-0.00146926
0.0359962
-0.0012039
-0.000915304
0.0242404
-0.0132837
0.0250383
-0.0126192
0.0258941
-0.0118695
0.0267688
-0.0109809
0.0276417
-0.0100331
0.0284949
-0.00908383
0.0293172
-0.00816557
0.0301023
-0.00729854
0.0308472
-0.00649404
0.0315505
-0.00575629
0.0322125
-0.00508477
0.0328341
-0.00447625
0.0334169
-0.00392635
0.0339627
-0.00343034
0.0344738
-0.00298351
0.0349526
-0.00258117
0.0354015
-0.00221894
0.0358224
-0.0018902
0.0362196
-0.00160107
-0.00127756
0.0239124
-0.0139265
0.0245962
-0.0133031
0.025325
-0.0125983
0.0261138
-0.0117698
0.0269418
-0.0108611
0.0277841
-0.00992609
0.0286223
-0.00900381
0.0294439
-0.00812008
0.0302403
-0.00729046
0.0310065
-0.0065225
0.0317397
-0.005818
0.0324387
-0.00517529
0.0331034
-0.00459105
0.0337345
-0.00406139
0.0343332
-0.00358226
0.0349015
-0.00314943
0.0354416
-0.00275905
0.0359554
-0.00240399
0.0364488
-0.00209444
-0.00174402
0.0408509
-0.0123024
-0.042475
0.0395211
-0.0119732
0.0383511
-0.0114283
0.0373485
-0.0107671
0.0365158
-0.0100284
0.0358387
-0.00924898
0.0352989
-0.00846407
0.0348784
-0.00769949
0.034559
-0.0069711
0.0343237
-0.00628714
0.0341564
-0.00565072
0.034043
-0.00506195
0.0339715
-0.00451949
0.0339315
-0.00402144
0.0339149
-0.00356564
0.033915
-0.00314955
0.0339269
-0.00277091
0.0339465
-0.00242359
0.0339735
-0.0021215
-0.00177719
0.0417114
-0.0109113
-0.0431025
0.0404317
-0.0106936
0.0392977
-0.0102943
0.0383034
-0.0097728
0.037449
-0.00917402
0.0367305
-0.00853052
0.0361377
-0.00787121
0.0356571
-0.00721888
0.0352744
-0.00658844
0.0349754
-0.00598816
0.0347465
-0.0054218
0.0345751
-0.00489056
0.0344501
-0.0043945
0.0343619
-0.0039332
0.0343022
-0.00350598
0.0342644
-0.00311174
0.0342431
-0.00274961
0.0342339
-0.00241442
0.0342343
-0.0021219
-0.00178249
0.0421801
-0.00962296
-0.0434685
0.0409864
-0.00949982
0.0399118
-0.0092197
0.0389598
-0.00882084
0.0381293
-0.00834353
0.0374168
-0.00781797
0.0368145
-0.00726893
0.0363121
-0.00671645
0.0358981
-0.00617452
0.0355614
-0.00565139
0.0352909
-0.00515129
0.0350765
-0.00467618
0.034909
-0.00422701
0.0347801
-0.00380433
0.0346826
-0.00340849
0.0346102
-0.00303935
0.0345577
-0.00269709
0.0345205
-0.00237723
0.0344951
-0.00209649
-0.00176578
0.0424401
-0.00844795
-0.0436152
0.0413435
-0.00840317
0.0403427
-0.00821893
0.0394456
-0.00792374
0.0386532
-0.00755107
0.0379628
-0.00712756
0.0373686
-0.00667474
0.0368624
-0.0062103
0.0364351
-0.00574721
0.0360774
-0.0052937
0.0357805
-0.00485443
0.0355363
-0.00443198
0.0353373
-0.00402798
0.0351766
-0.00364366
0.0350482
-0.00328002
0.0349464
-0.00293761
0.0348666
-0.00261725
0.0348044
-0.00231507
0.0347564
-0.00204842
-0.00173006
0.0425608
-0.00739427
-0.0436145
0.0415674
-0.00740976
0.0406488
-0.00730036
0.0398142
-0.00708911
0.0390669
-0.00680381
0.0384063
-0.006467
0.0378287
-0.00609712
0.037328
-0.00570962
0.0368972
-0.00531633
0.0365287
-0.00492521
0.0362155
-0.00454123
0.035951
-0.00416748
0.0357291
-0.0038061
0.0355443
-0.00345882
0.0353913
-0.0031271
0.0352656
-0.00281191
0.0351629
-0.00251455
0.0350795
-0.0022316
0.0350117
-0.00198065
-0.0016771
0.0425893
-0.00646056
-0.0435231
0.0416978
-0.0065182
0.0408625
-0.00646503
0.0400931
-0.00631979
0.0393948
-0.0061055
0.0387687
-0.00584083
0.0382128
-0.0055413
0.0377234
-0.0052202
0.0372952
-0.0048881
0.0369225
-0.00455254
0.0365998
-0.00421853
0.0363218
-0.00388948
0.0360836
-0.00356792
0.0358807
-0.00325591
0.0357088
-0.0029552
0.035564
-0.00266707
0.0354426
-0.00239312
0.0353413
-0.0021303
0.0352567
-0.0018961
-0.00160927
0.0425601
-0.00563731
-0.0433833
0.0417635
-0.00572162
0.0410076
-0.00570915
0.0403024
-0.00561458
0.0396537
-0.00545679
0.039064
-0.00525108
0.038533
-0.00501031
0.0380586
-0.00474582
0.0376374
-0.00446688
0.0372652
-0.00418041
0.036938
-0.00389131
0.0366516
-0.00360309
0.0364022
-0.00331848
0.036186
-0.00303974
0.0359996
-0.00276882
0.0358397
-0.00250718
0.0357032
-0.0022566
0.0355873
-0.00201433
0.0354887
-0.00179753
-0.0015289
0.0424965
-0.0049112
-0.0432227
0.0417854
-0.00501047
0.0411024
-0.0050262
0.0404575
-0.00496961
0.0398567
-0.00485598
0.0393033
-0.00469776
0.0387985
-0.00450552
0.0383415
-0.00428881
0.0379303
-0.00405566
0.0375622
-0.00381231
0.0372342
-0.00356333
0.0369434
-0.0033122
0.0366866
-0.0030617
0.036461
-0.00281416
0.0362638
-0.00257163
0.0360923
-0.00233565
0.0359438
-0.0021081
0.035816
-0.0018865
0.0357059
-0.00168742
-0.00143807
0.0424144
-0.00426857
-0.043057
0.0417782
-0.00437426
0.0411604
-0.00440844
0.0405704
-0.00437958
0.0400143
-0.00429993
0.0394961
-0.00417953
0.0390176
-0.004027
0.0385791
-0.00385033
0.0381798
-0.0036564
0.0378182
-0.0034507
0.0374923
-0.00323741
0.0372
-0.00301984
0.0369389
-0.00280069
0.036707
-0.00258227
0.036502
-0.00236662
0.0363217
-0.00215531
0.0361639
-0.00195026
0.0360266
-0.00174921
0.0359071
-0.00156795
-0.00133861
0.0423236
-0.00369673
-0.0428955
0.0417521
-0.00380272
0.0411916
-0.00384792
0.0406507
-0.00383869
0.0401355
-0.00378476
0.0396502
-0.00369417
0.0391971
-0.00357394
0.0387774
-0.00343066
0.0383912
-0.00327016
0.0380377
-0.00309722
0.0377159
-0.00291558
0.0374243
-0.00272827
0.0371614
-0.00253783
0.0369256
-0.00234648
0.0367152
-0.00215619
0.0365284
-0.0019685
0.0363634
-0.00178526
0.0362187
-0.00160449
0.0360917
-0.00144097
-0.00123215
0.0422307
-0.00318443
-0.042743
0.0417144
-0.00328641
0.0412035
-0.00333705
0.040706
-0.00334112
0.0402275
-0.00330631
0.0397723
-0.003239
0.0393433
-0.00314487
0.0389419
-0.00302934
0.0385691
-0.0028973
0.0382247
-0.00275281
0.0379083
-0.00259918
0.0376191
-0.0024391
0.0373562
-0.00227492
0.0371184
-0.00210869
0.0369045
-0.00194225
0.036713
-0.00177707
0.0365427
-0.00161494
0.0363923
-0.00145404
0.0362594
-0.00130808
-0.00112009
0.04214
-0.00272188
-0.0426026
0.0416705
-0.00281686
0.0412022
-0.00286878
0.0407423
-0.00288127
0.0402964
-0.00286033
0.0398684
-0.00281103
0.0394615
-0.00273792
0.0390775
-0.00264542
0.0387178
-0.00253758
0.0383828
-0.00241782
0.0380726
-0.00228897
0.0377869
-0.00215341
0.0375253
-0.00201324
0.0372869
-0.0018703
0.0370709
-0.00172628
0.0368764
-0.00158254
0.0367022
-0.00144074
0.0365474
-0.00129928
0.0364099
-0.0011706
-0.00100361
0.0420545
-0.00230065
-0.0424757
0.0416242
-0.00238656
0.0411921
-0.00243672
0.0407647
-0.00245386
0.0403471
-0.00244269
0.0399432
-0.00240719
0.0395563
-0.00235096
0.0391884
-0.00227758
0.0388412
-0.00219035
0.0385155
-0.00209212
0.0382118
-0.00198526
0.0379302
-0.00187182
0.0376706
-0.00175362
0.0374326
-0.0016323
0.0372157
-0.00150937
0.0370192
-0.00138604
0.0368422
-0.00126382
0.0366843
-0.00114133
0.0365433
-0.00102964
-0.000883704
0.0419761
-0.00191346
-0.0423633
0.0415785
-0.0019889
0.0411768
-0.00203506
0.040777
-0.00205402
0.0403837
-0.00204942
0.0400009
-0.00202436
0.0396316
-0.00198168
0.0392782
-0.00192421
0.0389425
-0.00185461
0.0386256
-0.0017752
0.0383282
-0.00168794
0.0380509
-0.00159453
0.0377938
-0.00149652
0.0375569
-0.00139534
0.0373398
-0.00129229
0.0371422
-0.00118843
0.0369635
-0.0010851
0.0368032
-0.000981095
0.0366597
-0.000886079
-0.000761185
0.0419065
-0.00155395
-0.042266
0.0415356
-0.00161801
0.0411591
-0.00165857
0.0407823
-0.0016772
0.0404096
-0.00167671
0.0400447
-0.00165947
0.0396907
-0.00162767
0.03935
-0.00158353
0.0390245
-0.00152912
0.0387156
-0.00146628
0.0384242
-0.00139659
0.0381511
-0.00132144
0.0378967
-0.0012421
0.0376611
-0.00115977
0.0374444
-0.00107553
0.0372462
-0.000990302
0.0370664
-0.000905212
0.0369045
-0.000819272
0.0367591
-0.000740617
-0.000636713
0.0418464
-0.00121657
-0.0421838
0.0414971
-0.00126867
0.041141
-0.00130249
0.040783
-0.00131922
0.0404273
-0.00132097
0.0400773
-0.00130952
0.0397362
-0.00128652
0.0394063
-0.00125363
0.0390896
-0.00121243
0.0387876
-0.00116433
0.0385016
-0.00111055
0.0382323
-0.00105218
0.0379805
-0.000990232
0.0377464
-0.00092566
0.0375302
-0.00085935
0.0373319
-0.000792035
0.0371513
-0.000724638
0.0369884
-0.000656375
0.0368416
-0.000593801
-0.00051082
0.0417966
-0.000896384
-0.0421168
0.0414642
-0.00093625
0.0411242
-0.00096255
0.0407812
-0.000976212
0.040439
-0.000978796
0.0401011
-0.000971584
0.0397703
-0.000955751
0.0394492
-0.000932493
0.0391397
-0.000902949
0.0388435
-0.000868134
0.0385619
-0.000828941
0.0382959
-0.000786178
0.0380463
-0.0007406
0.0378135
-0.000692923
0.037598
-0.000643814
0.0373998
-0.000593835
0.0372189
-0.000543679
0.0370553
-0.000492782
0.0369075
-0.000446042
-0.000383926
0.0417576
-0.000589193
-0.0420647
0.0414379
-0.000616626
0.0411102
-0.000634811
0.0407785
-0.000644527
0.0404466
-0.000646879
0.0401177
-0.000642733
0.0397948
-0.000632852
0.0394804
-0.00061801
0.0391763
-0.000598948
0.0388845
-0.00057633
0.0386063
-0.000550737
0.0383429
-0.000522705
0.038095
-0.000492734
0.0378634
-0.000461302
0.0376484
-0.000428856
0.0374504
-0.000395778
0.0372692
-0.000362518
0.0371052
-0.000328752
0.0369568
-0.00029765
-0.000256378
0.0417306
-0.000291338
-0.0420284
0.0414199
-0.000305957
0.0411005
-0.000315431
0.0407765
-0.000320461
0.0404514
-0.000321801
0.0401286
-0.000319918
0.0398109
-0.000315173
0.0395008
-0.000307939
0.0392005
-0.000298587
0.0389116
-0.000287448
0.0386357
-0.000274808
0.0383739
-0.000260931
0.0381272
-0.000246067
0.0378964
-0.000230455
0.0376818
-0.000214317
0.0374839
-0.000197856
0.0373026
-0.000181256
0.0371384
-0.00016448
0.0369895
-0.000148755
-0.000128661
0.0417178
-0.0420091
0.0414118
0.0410964
0.0407759
0.0404541
0.0401342
0.039819
0.0395111
0.0392125
0.038925
0.0386502
0.0383893
0.0381432
0.0379128
0.0376985
0.0375006
0.0373194
0.0371549
0.0370061
0.0392851
0.0042933
-0.0387857
0.0398228
0.00695714
0.04038
0.00953903
0.0409333
0.0120004
0.0414523
0.0143083
0.041903
0.0164313
0.0422318
0.018363
0.0424387
0.0199981
0.0423503
0.0216262
0.0222081
0.0385173
0.00384006
-0.038064
0.0390355
0.00643892
0.0396061
0.0089684
0.0402114
0.0113951
0.0408281
0.0136916
0.0414357
0.0158238
0.0419878
0.0178108
0.0425035
0.0194825
0.0428384
0.0212913
0.021944
0.0378383
0.00343833
-0.0374366
0.0383277
0.00594949
0.0388942
0.00840196
0.0395247
0.0107645
0.0402011
0.0130153
0.0409107
0.0151142
0.0416166
0.0171049
0.0423217
0.0187773
0.0429613
0.0206517
0.0214369
0.0372528
0.0030835
-0.0368979
0.0377118
0.00549043
0.038267
0.00784679
0.0389084
0.0101231
0.0396212
0.0123025
0.0403945
0.0143409
0.0412036
0.0162958
0.0420328
0.0179481
0.0428873
0.0197972
0.020709
0.0367493
0.00276839
-0.0364342
0.0371808
0.0050589
0.0377228
0.00730486
0.0383672
0.00947865
0.0391025
0.0115673
0.0399173
0.013526
0.040799
0.0154141
0.0417177
0.0170294
0.0427113
0.0188035
0.0198059
0.0363139
0.00248606
-0.0360316
0.0367219
0.00465085
0.037251
0.00677576
0.0378946
0.00883509
0.0386436
0.0108182
0.0394866
0.0126831
0.0404182
0.0144824
0.0414026
0.0160451
0.0424864
0.0177198
0.0187693
0.035935
0.00223037
-0.0356793
0.0363237
0.00426219
0.0368415
0.00625796
0.0374827
0.00819391
0.0382403
0.0100606
0.0391027
0.0118206
0.0400685
0.0135166
0.0411025
0.0150111
0.0422476
0.0165747
0.0176335
0.0356041
0.00199679
-0.0353705
0.035977
0.00388935
0.0364853
0.00574965
0.0371238
0.00755533
0.037887
0.00929738
0.0387637
0.010944
0.0397535
0.0125268
0.0408254
0.0139392
0.0420138
0.0153863
0.0164246
0.0353147
0.00178099
-0.0350989
0.0356744
0.00352959
0.0361749
0.00524916
0.0368112
0.00691907
0.0375782
0.00853038
0.0384657
0.0100565
0.0394729
0.0115196
0.0405738
0.0128383
0.0417938
0.0141664
0.0151614
0.0350614
0.00157783
-0.0348583
0.0354107
0.00318031
0.0359048
0.00475507
0.036539
0.00628483
0.0373087
0.00776066
0.0382046
0.00916067
0.0392248
0.0104994
0.0403479
0.0117152
0.0415915
0.0129227
0.0138574
0.0348414
0.00138816
-0.0346517
0.0351817
0.00284005
0.0356703
0.00426647
0.0363027
0.00565236
0.0370744
0.00698896
0.0379768
0.0082583
0.039007
0.00946918
0.040147
0.0105752
0.0414086
0.0116612
0.012523
0.0346511
0.00120944
-0.0344724
0.0349838
0.00250742
0.0354677
0.00378249
0.0360987
0.0050214
0.0368719
0.00621576
0.0377794
0.0073508
0.0388173
0.00843131
0.0399702
0.0094222
0.0412453
0.0103861
0.0111657
0.0344879
0.00103983
-0.0343183
0.0348141
0.00218122
0.0352942
0.00330238
0.0359239
0.00439174
0.0366982
0.00544142
0.0376097
0.0064393
0.0386536
0.00738745
0.0398165
0.00825934
0.0411015
0.00910107
0.00979151
0.0343496
0.000877771
-0.0341875
0.0346704
0.00186037
0.0351473
0.00282549
0.0357759
0.00376313
0.0365512
0.00466616
0.0374658
0.00552465
0.0385143
0.00633896
0.0396846
0.00708906
0.040977
0.00780866
0.00840519
0.0342343
0.000721947
-0.0340785
0.0345507
0.00154393
0.035025
0.0023512
0.0356528
0.00313536
0.0364288
0.00389015
0.0373459
0.00460753
0.038398
0.00528693
0.0395737
0.00591332
0.0408713
0.0065111
0.00701048
0.0341405
0.000571223
-0.0339898
0.0344534
0.00123103
0.0349257
0.00187896
0.0355528
0.00250819
0.0363295
0.00311346
0.0372486
0.00368849
0.0383033
0.00423224
0.0394829
0.0047337
0.0407838
0.0052102
0.00561046
0.034067
0.000424592
-0.0339204
0.0343771
0.000920925
0.0348478
0.00140826
0.0354747
0.00188136
0.036252
0.00233615
0.0371725
0.00276793
0.0382291
0.00317564
0.0394113
0.00355155
0.040714
0.00390751
0.00420764
0.0340126
0.000281101
-0.0338691
0.0343206
0.00061288
0.0347903
0.000938558
0.0354171
0.00125461
0.036195
0.00155821
0.0371167
0.00184622
0.0381746
0.0021178
0.0393581
0.00236801
0.0406612
0.00260438
0.00280413
0.033976
0.000140119
-0.033835
0.0342827
0.00030612
0.034752
0.000469287
0.035379
0.000627563
0.0361577
0.000779507
0.0370804
0.000923522
0.0381391
0.00105916
0.0393231
0.00118395
0.0406258
0.00130176
0.00140144
0.0339568
-0.0338167
0.0342629
0.0347322
0.0353598
0.0361393
0.0370628
0.0381219
0.0393059
0.0406077
0.0183679
0.0284303
-0.0264206
-0.0203776
0.0161681
0.0290521
-0.0268523
0.0139034
0.0298271
-0.0275623
0.0115773
0.0307322
-0.0284062
0.00919506
0.0317268
-0.0293445
0.0067865
0.0327037
-0.0302952
0.0044303
0.033274
-0.0309178
0.00229478
0.0323771
-0.0302416
0.000677151
0.0276516
-0.026034
0.0146015
-0.0139244
0.0164112
0.0304493
-0.0184302
0.0143723
0.031091
0.0122936
0.0319058
0.0101646
0.0328612
0.00798565
0.0339058
0.00579174
0.0348976
0.00367511
0.0353906
0.00181405
0.0342381
0.000483401
0.0289822
0.0150849
0.0144309
0.0322887
-0.0162703
0.0125466
0.0329752
0.0106296
0.0338228
0.00867835
0.0348125
0.00669759
0.0358865
0.00472733
0.0368679
0.0028691
0.0372488
0.0013062
0.035801
0.000282637
0.0300058
0.0153676
0.0123164
0.03395
-0.0139777
0.0106089
0.0346827
0.00887095
0.0355608
0.00710929
0.0365741
0.00533772
0.0376581
0.0036058
0.0385998
0.0020242
0.0388305
0.000778156
0.0370471
8.02818e-05
0.0307037
0.0154479
0.01007
0.0354247
-0.0115447
0.00855525
0.0361974
0.00701406
0.037102
0.00545815
0.03813
0.00391191
0.0392043
0.00243674
0.040075
0.00115123
0.040116
0.00022579
0.0379725
-0.000122112
0.0310516
0.0153258
0.00771012
0.0366971
-0.00898256
0.0064029
0.0375047
0.00507289
0.038432
0.00373765
0.0394653
0.00243274
0.0405092
0.00123468
0.041273
0.000258633
0.041092
-0.000295099
0.0385262
-0.000308064
0.0310645
0.0150177
0.0052606
0.0377549
-0.00631834
0.00417095
0.0385943
0.00306427
0.0395387
0.00196433
0.0405652
0.000915906
0.0415576
1.12477e-06
0.0421878
-0.000613849
0.041707
-0.000791494
0.0387039
-0.000480897
0.0307539
0.0145368
0.00274552
0.0385905
-0.0035811
0.0018797
0.0394601
0.00101036
0.040408
0.00016278
0.0414128
-0.000606618
0.042327
-0.0011934
0.0427746
-0.00146429
0.0419779
-0.00127329
0.0385129
-0.000638299
0.030119
0.0138985
0.000175618
0.0392234
-0.000808534
-0.000445875
0.0400816
-0.00106837
0.0410305
-0.00165329
0.0419977
-0.0021283
0.0428021
-0.00238572
0.043032
-0.00228648
0.0418786
-0.00172059
0.037947
-0.000775495
0.0291739
0.013123
-0.00238927
0.00203306
-0.00277308
-0.00314209
-0.00344961
-0.00361704
-0.00352897
-0.00305407
-0.00212024
-0.000888442
0.0265785
0.0027147
-0.0292932
0.0237758
0.00280276
0.0208752
0.00290058
0.0178661
0.00300914
0.0147346
0.00313144
0.0114711
0.00326352
0.00809319
0.0033779
0.00471346
0.00337973
0.00169946
0.00301401
0.00169946
0.0264531
0.00542415
-0.0291626
0.0236568
0.00559911
0.0207641
0.00579328
0.0177643
0.00600893
0.0146438
0.0062519
0.0113932
0.00651409
0.00803038
0.00674075
0.00466948
0.00674063
0.00168336
0.00600012
0.00338282
0.0261991
0.00812225
-0.0288972
0.023416
0.00838225
0.0205392
0.00867004
0.0175582
0.00898998
0.0144596
0.00935045
0.0112352
0.00973853
0.0079049
0.010071
0.00458532
0.0100602
0.00164563
0.00893981
0.00502845
0.0258116
0.0108017
-0.0284911
0.0230495
0.0111444
0.0201975
0.011522
0.0172453
0.0119422
0.0141804
0.0124154
0.010996
0.012923
0.00771506
0.0133519
0.00445752
0.0133177
0.00158974
0.0118076
0.00661819
0.0252844
0.0134543
-0.027937
0.022552
0.0138767
0.0197344
0.0143396
0.0168219
0.0148547
0.0138029
0.0154343
0.010673
0.0160529
0.00745909
0.0165658
0.0042856
0.0164912
0.00151506
0.0145781
0.00813324
0.0246117
0.0160716
-0.027229
0.0219173
0.0165711
0.0191436
0.0171134
0.0162822
0.0177161
0.0133226
0.0183939
0.0102627
0.0191127
0.00713481
0.0196937
0.00406851
0.0195575
0.00142126
0.0172254
0.00955451
0.0237891
0.0186461
-0.0263636
0.0211407
0.0192195
0.018421
0.0198331
0.0156227
0.0205144
0.012736
0.0212806
0.00976244
0.0220863
0.00674029
0.0227159
0.00380543
0.0224924
0.00130831
0.0197225
0.0108628
0.0228127
0.0211825
-0.0253491
0.0202063
0.0218259
0.0175513
0.0224881
0.0148317
0.0232341
0.0120351
0.0240772
0.00916708
0.0249543
0.00627304
0.0256099
0.00349566
0.0252698
0.00117639
0.0220418
0.0120392
0.0216454
0.0237192
-0.0241821
0.0190931
0.0243781
0.0165242
0.025057
0.0138996
0.0258587
0.0112115
0.0267653
0.00847129
0.0276945
0.00573068
0.0283505
0.00313893
0.0278615
0.00102606
0.0241546
0.0130653
0.0203926
-0.023094
0.0179184
0.015413
0.0128656
0.0102864
0.00768571
0.00511847
0.00273844
0.000859121
0.0332669
-0.000149679
0.0334143
-0.000147443
0.0335539
-0.000139562
0.0336818
-0.000127927
0.0337944
-0.000112531
0.0338876
-9.31955e-05
0.0339572
-6.96414e-05
0.0339989
-4.16885e-05
0.0340087
-9.77371e-06
0.0339742
3.44851e-05
0.0338889
8.53057e-05
0.0337464
0.000142521
0.0335387
0.000207641
0.0332569
0.000281849
0.0328904
0.000366451
0.0324274
0.000463044
0.0318538
0.000573599
0.0311532
0.000700531
0.0303067
0.000846566
0.00101345
0.0333353
-0.00029059
0.0334734
-0.000285528
0.0336032
-0.000269409
0.0337213
-0.000245985
0.0338238
-0.000215112
0.033907
-0.000176351
0.0339665
-0.000129123
0.0339979
-7.30885e-05
0.0339978
-9.65626e-06
0.033951
8.12771e-05
0.0338541
0.000182196
0.0337002
0.000296443
0.0334812
0.00042658
0.0331882
0.000574831
0.0328109
0.000743792
0.0323373
0.000936666
0.0317535
0.00115741
0.0310431
0.00141093
0.0301869
0.00170274
0.00203777
0.0334702
-0.000412075
0.0335886
-0.000403893
0.0336987
-0.000379452
0.0337968
-0.00034408
0.0338792
-0.000297537
0.033942
-0.000239169
0.0339811
-0.00016825
0.0339927
-8.46547e-05
0.0339706
1.24781e-05
0.0339001
0.000151689
0.0337801
0.00030226
0.0336032
0.000473312
0.0333616
0.000668202
0.0330463
0.000890156
0.032647
0.00114302
0.0321521
0.00143157
0.0315478
0.00176175
0.0308176
0.00214111
0.0299426
0.00257776
0.00308317
0.0336662
-0.000503936
0.0337544
-0.000492115
0.0338343
-0.000459338
0.0339022
-0.000412029
0.0339545
-0.000349855
0.0339874
-0.000271975
0.0339966
-0.000177488
0.0339785
-6.65372e-05
0.0339142
7.67878e-05
0.0338101
0.000255759
0.0336562
0.000456197
0.0334453
0.000684141
0.0331698
0.000943696
0.0328209
0.00123905
0.0323887
0.00157523
0.0318617
0.00195856
0.0312266
0.00239691
0.030467
0.00290068
0.0295651
0.00347968
0.00415719
0.0339158
-0.000555289
0.0339628
-0.000539066
0.0340012
-0.000497768
0.0340274
-0.000438201
0.0340374
-0.000359907
0.0340274
-0.000261924
0.0339935
-0.00014358
0.0339386
-1.16348e-05
0.0338266
0.000188772
0.0336748
0.000407488
0.0334741
0.000656955
0.0332167
0.000941491
0.0328951
0.00126529
0.0325008
0.00163337
0.0320242
0.00205188
0.0314542
0.00252857
0.0307781
0.003073
0.02998
0.00369872
0.0290447
0.00441502
0.00526489
0.034211
-0.000554743
0.0342056
-0.000533605
0.0341919
-0.000484131
0.0341664
-0.000412674
0.0341253
-0.000318826
0.0340647
-0.000201273
0.0339839
-6.27893e-05
0.0338472
0.000125093
0.0336816
0.00035435
0.0334736
0.000615471
0.033216
0.000914549
0.0329017
0.00125579
0.0325232
0.00164378
0.0320725
0.00208411
0.0315406
0.00258376
0.0309173
0.00315187
0.0301911
0.0037992
0.0293467
0.00454311
0.0283733
0.00538837
0.00640926
0.0345418
-0.00048969
0.034471
-0.000462827
0.0343926
-0.000405685
0.0343022
-0.000322304
0.0341961
-0.0002127
0.0340753
-8.0484e-05
0.0339158
9.66559e-05
0.0337157
0.000325193
0.0334818
0.000588287
0.0332044
0.00089283
0.0328769
0.0012421
0.0324925
0.00164017
0.0320443
0.00209196
0.0315249
0.00260351
0.0309262
0.00318243
0.0302391
0.00383901
0.029454
0.0045843
0.0285566
0.0054405
0.0275438
0.00640119
0.00758943
0.0349028
-0.000348188
0.0347562
-0.000316151
0.0346014
-0.000250916
0.0344358
-0.000156677
0.0342627
-3.96541e-05
0.0340483
0.000133917
0.0337978
0.00034713
0.0335216
0.000601419
0.0332082
0.000901708
0.0328508
0.00125019
0.0324431
0.00164987
0.0319786
0.00210467
0.0314511
0.00261943
0.0308543
0.00320034
0.0301814
0.00385532
0.0294249
0.00459552
0.0285775
0.00543164
0.0276257
0.00639237
0.0265721
0.00745477
0.00881241
0.0352717
-0.0001158
0.0350354
-7.9847e-05
0.0348045
-2.00375e-05
0.034553
9.48054e-05
0.0342659
0.000247517
0.0339597
0.000440064
0.0336285
0.000678345
0.0332636
0.000966268
0.0328592
0.00130614
0.0324092
0.00170024
0.0319076
0.00215148
0.0313487
0.00266357
0.0307269
0.00324117
0.0300369
0.0038904
0.0292732
0.00461895
0.028431
0.00543772
0.0275076
0.00635506
0.0264972
0.0074028
0.025418
0.00853391
0.0100484
0.0357001
0.000222873
0.035358
0.000262221
0.0349969