/*--------------------------------*- C++ -*----------------------------------*\
| =========                 |                                                 |
| \\      /  F ield         | OpenFOAM: The Open Source CFD Toolbox           |
|  \\    /   O peration     | Version:  4.1                                   |
|   \\  /    A nd           | Web:      www.OpenFOAM.org                      |
|    \\/     M anipulation  |                                                 |
\*---------------------------------------------------------------------------*/
FoamFile
{
    version     2.0;
    format      ascii;
    class       surfaceScalarField;
    location    "11.3";
    object      phi;
}
// * * * * * * * * * * * * * * * * * * * * * * * * * * * * * * * * * * * * * //

dimensions      [0 3 -1 0 0 0 0];

internalField   nonuniform List<scalar> 
3890
(
0.00022435
0.00185561
-0.00207996
0.00185381
0.000639293
-0.00226875
0.00551491
-0.00382274
0.000161638
0.0115509
-0.0105496
0.00451362
0.0199044
-0.0185672
0.0102137
0.0301275
-0.0269047
0.0166817
0.0415397
-0.0347845
0.0233723
0.0535543
-0.0417229
0.0297082
0.0655526
-0.0478465
0.0358482
-0.0519347
0.0406117
0.0768756
0.000481474
0.00137414
0.00298897
-0.0018682
0.00817318
-0.00900695
0.0161054
-0.0184818
0.0261974
-0.0286593
0.0374865
-0.0381937
0.0490178
-0.0463158
0.0601094
-0.0528145
0.0700859
-0.057823
-0.0613081
0.0794594
0.000844155
0.000529985
0.00444049
-0.00546453
0.0112485
-0.0158149
0.0207211
-0.0279545
0.0315953
-0.0395334
0.0425753
-0.0491738
0.0527687
-0.0565092
0.0617504
-0.0617962
0.0695027
-0.0655752
-0.068268
0.0764626
0.00130563
-0.000775646
0.00611104
-0.0102699
0.0143222
-0.0240261
0.0245124
-0.0381446
0.0349443
-0.0499653
0.0444334
-0.058663
0.0525212
-0.064597
0.0593
-0.0685751
0.0651125
-0.0713877
-0.0735469
0.0703913
0.0018481
-0.00262375
0.00781638
-0.0162382
0.0168453
-0.033055
0.0267172
-0.0480165
0.0357275
-0.0589756
0.043203
-0.0661385
0.0492359
-0.0706299
0.0542581
-0.0735972
0.0587254
-0.075855
-0.0778938
0.0630723
0.00243543
-0.00505918
0.00929336
-0.0230961
0.0183339
-0.0420956
0.0270349
-0.0567175
0.034188
-0.0661287
0.0397205
-0.0716711
0.0440864
-0.0749958
0.0478115
-0.0773223
0.0512994
-0.0793429
-0.081351
0.0547567
0.00300126
-0.00806044
0.0102724
-0.0303672
0.0185711
-0.0503943
0.0256501
-0.0637965
0.0309506
-0.0714292
0.0348332
-0.0755536
0.0378857
-0.0780483
0.0405823
-0.0800189
0.0431945
-0.081955
-0.0840014
0.0458448
0.00345663
-0.0115171
0.010579
-0.0374896
0.0176326
-0.0574479
0.0229839
-0.0691479
0.0266261
-0.0750715
0.029146
-0.0780735
0.0311196
-0.0800218
0.03291
-0.0818094
0.0346845
-0.0837295
-0.0858074
0.0364906
0.0037155
-0.0152326
0.0101788
-0.0439528
0.0157593
-0.0630284
0.0194702
-0.0728588
0.0216835
-0.0772848
0.023058
-0.079448
0.0240852
-0.081049
0.0250182
-0.0827425
0.0259416
-0.0846528
-0.0867374
0.0268716
0.00372631
-0.0189589
0.00917798
-0.0494045
0.0132385
-0.0670889
0.0154701
-0.0750904
0.0164576
-0.0782723
0.0168326
-0.079823
0.0169806
-0.0811969
0.0170651
-0.082827
0.0171275
-0.0847153
0.0171638
-0.0867737
-0.000613793
0.000613793
-0.00186367
0.00124987
-0.00345925
0.00159559
-0.00524427
0.00178502
-0.00713732
0.00189305
-0.00910383
0.00196652
-0.0111379
0.00203404
-0.0132503
0.0021124
-0.0154649
0.00221459
0.0023559
-0.0178208
-0.000544229
0.00115802
-0.00166154
0.00236718
-0.0030857
0.00301975
-0.00465952
0.00335883
-0.00629428
0.00352781
-0.00794498
0.00361722
-0.0095947
0.00368375
-0.0112456
0.00376329
-0.012914
0.00388304
0.00408068
-0.0146388
-0.00042288
0.0015809
-0.00130941
0.00325371
-0.00242583
0.00413617
-0.0036199
0.00455291
-0.00479376
0.00470168
-0.00588539
0.00470884
-0.00685772
0.00465608
-0.00769516
0.00460074
-0.00840048
0.00458836
0.00467431
-0.00899411
-0.000283371
0.00186427
-0.000888459
0.0038588
-0.0016198
0.00486752
-0.0023343
0.0052674
-0.00292856
0.00529594
-0.00332486
0.00510515
-0.00346199
0.00479321
-0.00329591
0.00443466
-0.00280415
0.0040966
0.00389358
-0.00202342
-0.000159116
0.00202339
-0.000484748
0.00418443
-0.000811639
0.00519441
-0.00100736
0.00546312
-0.000967936
0.00525652
-0.000606018
0.00474323
0.000158373
0.00402881
0.00140352
0.00318952
0.00319895
0.00230116
0.00153184
0.00556069
-7.37408e-05
0.00209713
-0.000156903
0.00426759
-9.33634e-05
0.00513087
0.000247771
0.00512199
0.000976462
0.00452783
0.00219044
0.00352925
0.00398449
0.00223477
0.0064492
0.000724813
0.00967649
-0.000926126
-0.0027133
0.0139216
-3.37596e-05
0.00213089
8.47295e-05
0.00414911
0.000535064
0.00468054
0.00147389
0.00418316
0.00303688
0.00296485
0.00534757
0.00121856
0.00851345
-0.00093111
0.012621
-0.00338271
0.0176926
-0.0059978
-0.0092704
0.0242497
-2.21419e-05
0.00215303
0.000291693
0.00383527
0.0011926
0.00377963
0.00289405
0.00248171
0.00558587
0.00027303
0.00942741
-0.00262298
0.0145155
-0.00601924
0.0208623
-0.00972945
0.02838
-0.0135155
-0.0184148
0.0375244
2.90506e-06
0.00215013
0.000576203
0.00326197
0.00209626
0.00225957
0.00486177
-0.0002838
0.00911631
-0.00398152
0.0149882
-0.00849485
0.0224748
-0.0135059
0.0313759
-0.0186306
0.04158
-0.0237196
-0.0294338
0.052599
7.0165e-05
0.00106338
0.0034846
0.00771441
0.0139466
0.0221334
0.0319998
0.0430775
0.0552061
0.066384
-0.0193695
0.00154871
-0.0209118
0.00154232
-0.022418
0.00150625
-0.0238772
0.00145913
-0.0252781
0.00140096
-0.0266086
0.00133044
-0.0278555
0.00124689
-0.0290056
0.00115011
-0.030046
0.00104042
-0.0309647
0.000918691
-0.031751
0.000786364
-0.0323966
0.000645573
-0.0328958
0.000499206
-0.0332469
0.000351039
-0.0334528
0.000205922
-0.0335226
6.98515e-05
-0.0334722
-5.04353e-05
-0.0333219
-0.000150274
-0.0330912
-0.000230686
-0.000287099
-0.0159959
0.00290574
-0.0173736
0.00292006
-0.0187439
0.00287659
-0.0200975
0.00281271
-0.0214246
0.00272806
-0.0227135
0.00261932
-0.0239512
0.00248456
-0.0251239
0.00232282
-0.0262175
0.002134
-0.0272178
0.00191899
-0.0281111
0.00167973
-0.0288851
0.00141951
-0.029529
0.00114313
-0.0300353
0.00085729
-0.0304005
0.000571134
-0.0306273
0.000296677
-0.0307245
4.67322e-05
-0.0307121
-0.0001626
-0.0306182
-0.000324622
-0.000429175
-0.00997804
0.00388968
-0.011014
0.003956
-0.0120852
0.00394776
-0.0131862
0.00391375
-0.0143109
0.0038528
-0.0154505
0.00375886
-0.0165938
0.00362785
-0.0177283
0.00345732
-0.0188402
0.0032459
-0.0199144
0.00299325
-0.020935
0.00270028
-0.021885
0.00236954
-0.0227475
0.00200561
-0.023506
0.0016158
-0.024146
0.00121114
-0.0246568
0.000807486
-0.0250349
0.00042486
-0.0252841
8.66119e-05
-0.0254391
-0.000169625
-0.000319736
-0.00246547
0.00433173
-0.00301942
0.00450995
-0.00364395
0.0045723
-0.00433366
0.00460346
-0.00509162
0.00461076
-0.00591539
0.00458262
-0.00679839
0.00451085
-0.00773238
0.00439131
-0.00870789
0.00422141
-0.00971369
0.00399906
-0.0107365
0.00372305
-0.0117606
0.00339371
-0.0127683
0.00301331
-0.0137392
0.00258669
-0.0146507
0.00212264
-0.0154787
0.00163543
-0.0162
0.00114615
-0.0167973
0.000683958
-0.0172718
0.000304868
8.11904e-05
0.00564105
0.00425137
0.00558598
0.00456502
0.00544794
0.00471034
0.00524067
0.00481074
0.00494972
0.0049017
0.00456786
0.00496449
0.0040961
0.0049826
0.00353694
0.00495048
0.00289276
0.00486559
0.00216726
0.00472456
0.00136626
0.00452405
0.000497903
0.00426207
-0.000427213
0.00393843
-0.00139548
0.00355496
-0.00238892
0.00311607
-0.00338389
0.0026304
-0.00435057
0.00211283
-0.00525161
0.001585
-0.00604013
0.00109339
0.000764825
0.0143708
0.00380224
0.0146675
0.00426827
0.0148997
0.00447812
0.0150897
0.00462079
0.0152125
0.0047789
0.0152541
0.0049229
0.0152122
0.00502447
0.0150843
0.00507839
0.0148656
0.00508423
0.0145523
0.00503787
0.0141422
0.00493414
0.013635
0.0047693
0.0130318
0.00454166
0.0123356
0.00425111
0.0115519
0.00389977
0.0106902
0.0034921
0.00976589
0.00303715
0.00880486
0.00254604
0.00785837
0.00203988
0.00161267
0.0247278
0.00332418
0.0250977
0.00389841
0.0254583
0.00411749
0.0258277
0.00425142
0.0261685
0.00443809
0.0264678
0.00462353
0.0267241
0.00476822
0.0269299
0.00487256
0.0270744
0.00493972
0.0271479
0.00496441
0.0271422
0.00493981
0.0270505
0.004861
0.0268665
0.00472562
0.0265855
0.00453214
0.0262029
0.00428238
0.0257167
0.00397833
0.0251242
0.00362958
0.0244296
0.00324073
0.0236323
0.00283713
0.00240737
0.0376765
0.00317211
0.0378617
0.00371322
0.0381456
0.00383355
0.0384841
0.0039129
0.038833
0.00408919
0.0391959
0.00426072
0.039571
0.00439311
0.0399445
0.00449898
0.0403019
0.00458239
0.0406312
0.00463514
0.0409212
0.00464975
0.0411618
0.00462045
0.0413421
0.00454528
0.0414537
0.00442058
0.0414858
0.00425026
0.0414327
0.00403144
0.0412796
0.00378266
0.0410293
0.00349101
0.040641
0.00322544
0.00286409
0.0524395
0.0033316
0.0525339
0.00361889
0.0528406
0.0035268
0.0531818
0.00357176
0.0535465
0.00372442
0.0539543
0.00385296
0.0543936
0.0039538
0.0548498
0.0040428
0.0553147
0.00411749
0.0557824
0.00416743
0.0562447
0.00418741
0.0566943
0.00417091
0.0571208
0.00411871
0.057518
0.00402338
0.0578726
0.0038957
0.0581818
0.00372227
0.0584242
0.00354025
0.0586087
0.00330647
0.0586956
0.00313857
0.00286543
0.0667032
0.00301239
0.0674301
0.00289203
0.0680572
0.00289967
0.0686151
0.00301387
0.0691872
0.00315236
0.0697646
0.00327556
0.0703367
0.00338167
0.070909
0.00347053
0.0714868
0.00353966
0.0720733
0.00358091
0.0726672
0.00359351
0.0732692
0.00356888
0.073874
0.00351393
0.0744821
0.00341534
0.075082
0.00329577
0.0756771
0.00312719
0.0762482
0.00296912
0.0768045
0.00275015
0.0773264
0.0026167
0.00237927
0.0920065
0.00393862
-0.0929327
0.0910182
0.00388031
0.0901373
0.0037806
0.0894106
0.00374059
0.0888228
0.00374014
0.0883476
0.00375074
0.0879648
0.00376452
0.0876623
0.00377296
0.0874296
0.00377235
0.0872582
0.00375232
0.0871365
0.00371524
0.0870571
0.00364826
0.087007
0.00356407
0.0869807
0.00344166
0.0869622
0.00331427
0.086949
0.00314034
0.0869237
0.00299448
0.0868871
0.00278671
0.0868298
0.00267405
0.00245859
0.102182
0.00402653
-0.10227
0.101966
0.00409587
0.101672
0.00407474
0.101387
0.00402591
0.101136
0.00399102
0.100918
0.00396879
0.100731
0.00395161
0.100576
0.00392733
0.100453
0.0038954
0.100361
0.00384511
0.100292
0.00378371
0.100245
0.00369487
0.100212
0.00359792
0.100189
0.00346461
0.100165
0.00333803
0.100141
0.0031646
0.100103
0.00303166
0.100057
0.00283298
0.0999944
0.0027368
0.00253532
0.109154
0.00410264
-0.10923
0.109181
0.00406961
0.109214
0.00404106
0.109251
0.00398905
0.109303
0.00393944
0.109371
0.00390063
0.109452
0.00387049
0.109544
0.0038351
0.109644
0.00379511
0.109752
0.0037377
0.109862
0.00367381
0.109973
0.00358382
0.110078
0.00349227
0.110178
0.0033653
0.110263
0.00325252
0.110335
0.00309262
0.110388
0.00297915
0.110422
0.00279871
0.110439
0.00271985
0.00253621
0.114479
0.00405729
-0.114434
0.114622
0.00392626
0.114808
0.0038551
0.115007
0.00379017
0.115219
0.00372802
0.115446
0.00367297
0.115688
0.00362877
0.11594
0.00358305
0.116197
0.00353778
0.116457
0.00347807
0.116714
0.0034167
0.116966
0.00333209
0.117207
0.00325112
0.117435
0.00313757
0.117645
0.00304237
0.117835
0.00290292
0.118004
0.00281008
0.118148
0.00265451
0.118276
0.00259136
0.00243184
0.119032
0.00387141
-0.118846
0.119257
0.00370174
0.119518
0.00359392
0.119798
0.00351013
0.12009
0.00343623
0.120395
0.0033681
0.120712
0.00331098
0.121041
0.00325483
0.121375
0.0032034
0.121712
0.00314122
0.122047
0.00308137
0.122377
0.0030021
0.122698
0.00293002
0.123006
0.00282986
0.123299
0.0027496
0.123571
0.00263057
0.123826
0.00255485
0.124057
0.00242419
0.124274
0.00237354
0.0022398
0.123464
0.00361507
-0.123207
0.123732
0.00343375
0.124024
0.00330103
0.124336
0.0031984
0.124659
0.00311301
0.124993
0.00303495
0.125336
0.00296778
0.125688
0.00290284
0.126046
0.0028453
0.126407
0.00278047
0.126767
0.00272085
0.127123
0.00264577
0.127474
0.00257993
0.127812
0.00249094
0.12814
0.00242176
0.128451
0.00232004
0.128749
0.00225709
0.129025
0.0021477
0.129292
0.00210645
0.00199509
0.128102
0.00333219
-0.127819
0.128389
0.0031469
0.12869
0.00300014
0.129004
0.0028836
0.129329
0.00278834
0.129661
0.0027027
0.130001
0.00262825
0.130347
0.00255678
0.130698
0.00249413
0.131051
0.00242703
0.131405
0.00236709
0.131756
0.00229533
0.132102
0.00223386
0.132439
0.00215375
0.132768
0.00209264
0.133083
0.00200467
0.133389
0.00195109
0.133679
0.00185861
0.133961
0.00182429
0.00173069
0.133009
0.00303413
-0.132711
0.133304
0.00285191
0.133603
0.00270098
0.13391
0.00257706
0.134223
0.00247511
0.134542
0.00238435
0.134865
0.00230527
0.135192
0.00222982
0.135522
0.0021638
0.135853
0.00209546
0.136185
0.00203549
0.136514
0.0019667
0.136839
0.00190875
0.137157
0.00183586
0.137468
0.00178097
0.137769
0.00170389
0.138063
0.00165744
0.138343
0.00157819
0.138618
0.00154912
0.00146952
0.138097
0.00272491
-0.137788
0.138397
0.00255234
0.138693
0.00240448
0.138991
0.0022792
0.139292
0.0021746
0.139594
0.00208173
0.139899
0.00200087
0.140204
0.00192417
0.140511
0.00185706
0.140818
0.00178906
0.141123
0.00173007
0.141425
0.00166459
0.141724
0.00161013
0.142016
0.00154365
0.142303
0.00149412
0.142581
0.00142608
0.142853
0.00138549
0.143114
0.00131697
0.143371
0.00129214
0.00122403
0.143215
0.00240707
-0.142897
0.143519
0.00224737
0.143817
0.00210716
0.14411
0.00198555
0.144402
0.00188258
0.144693
0.00179105
0.144983
0.00171144
0.14527
0.00163631
0.145557
0.00157061
0.145841
0.00150494
0.146123
0.00144843
0.1464
0.00138717
0.146673
0.00133677
0.14694
0.00127666
0.147202
0.00123232
0.147456
0.00117248
0.147704
0.00113713
0.147943
0.00107802
0.148178
0.00105685
0.00099888
0.148206
0.00207924
-0.147878
0.148519
0.00193403
0.148822
0.00180468
0.149116
0.00169092
0.149405
0.00159366
0.149689
0.00150699
0.149969
0.00143165
0.150244
0.00136087
0.150516
0.0012991
0.150783
0.00123793
0.151046
0.00118562
0.151303
0.00112989
0.151555
0.00108447
0.151801
0.00103127
0.152041
0.000992381
0.152272
0.000940653
0.152499
0.000910374
0.152717
0.000860244
0.152931
0.000842474
0.000794173
0.152959
0.00173979
-0.152619
0.153282
0.00161105
0.153591
0.00149536
0.153889
0.00139287
0.154178
0.00130479
0.154459
0.00122617
0.154732
0.00115791
0.154999
0.00109405
0.15526
0.00103849
0.155514
0.000983914
0.155762
0.000937512
0.156003
0.000888743
0.156238
0.000849324
0.156466
0.000803864
0.156687
0.000770888
0.1569
0.000727663
0.157108
0.000702501
0.157307
0.000661487
0.157502
0.000646985
0.000608434
0.157435
0.00139367
-0.157089
0.157763
0.00128362
0.158074
0.00118395
0.158372
0.00109528
0.158658
0.00101892
0.158933
0.000950848
0.159199
0.000891893
0.159456
0.000837033
0.159705
0.000789496
0.159946
0.000743194
0.160179
0.000704051
0.160404
0.000663465
0.160623
0.000630874
0.160833
0.000593922
0.161036
0.000567221
0.161231
0.000532931
0.161421
0.00051293
0.161601
0.000481274
0.161778
0.000469931
0.00044129
0.161663
0.00105683
-0.161326
0.16198
0.000966738
0.16228
0.000884408
0.162564
0.000810875
0.162835
0.000747596
0.163095
0.000691427
0.163344
0.000643011
0.163582
0.000598295
0.163812
0.00055974
0.164033
0.000522599
0.164245
0.000491369
0.164449
0.000459533
0.164646
0.000434069
0.164834
0.000405871
0.165016
0.000385441
0.165189
0.000360083
0.165357
0.000345054
0.165515
0.000322588
0.165671
0.000314193
0.000295147
0.165661
0.000753449
-0.165357
0.165945
0.00068268
0.166212
0.000617394
0.166464
0.00055886
0.166703
0.000508584
0.16693
0.000464314
0.167146
0.000426412
0.167353
0.000391785
0.167551
0.000362087
0.167739
0.000333917
0.16792
0.000310332
0.168093
0.000286873
0.168259
0.000268104
0.168417
0.00024807
0.168569
0.000233362
0.168713
0.000216151
0.168852
0.000205547
0.168984
0.000191309
0.169112
0.000185477
0.000174837
0.169345
0.000504313
-0.169096
0.169577
0.000450615
0.169794
0.000400741
0.169997
0.000355918
0.170188
0.000317535
0.170368
0.000284102
0.170539
0.000255703
0.1707
0.000230126
0.170854
0.000208295
0.171
0.000188016
0.171139
0.000171079
0.171271
0.000154807
0.171398
0.000141711
0.171517
0.000128494
0.171632
0.000118515
0.17174
0.000107924
0.171845
0.000100903
0.171943
9.315e-05
0.172039
8.93619e-05
8.50941e-05
0.172531
0.000315496
-0.172342
0.172705
0.000276373
0.172866
0.00024002
0.173014
0.00020742
0.173152
0.000179659
0.173281
0.000155764
0.173401
0.000135614
0.173513
0.000117751
0.173619
0.000102563
0.173718
8.87962e-05
0.173812
7.73019e-05
0.1739
6.67307e-05
0.173983
5.81219e-05
0.174062
5.00675e-05
0.174137
4.37126e-05
0.174207
3.78947e-05
0.174274
3.35486e-05
0.174337
3.01774e-05
0.174398
2.78963e-05
2.75577e-05
0.175038
0.000179136
-0.174901
0.175161
0.000152821
0.175273
0.000128625
0.175373
0.000107309
0.175463
8.93237e-05
0.175545
7.39949e-05
0.175619
6.11299e-05
0.175687
4.9882e-05
0.17575
4.03438e-05
0.175806
3.19033e-05
0.175859
2.48507e-05
0.175907
1.86608e-05
0.175952
1.35497e-05
0.175992
9.14434e-06
0.176031
5.47717e-06
0.176066
2.71973e-06
0.176099
2.92742e-07
0.17613
-6.79404e-07
0.17616
-1.89132e-06
-6.21116e-07
0.176763
8.16316e-05
-0.176666
0.17685
6.66192e-05
0.176924
5.40284e-05
0.176988
4.3498e-05
0.177043
3.47737e-05
0.177089
2.73756e-05
0.177129
2.11517e-05
0.177163
1.57299e-05
0.177192
1.1133e-05
0.177217
7.13514e-06
0.177238
3.80057e-06
0.177256
9.8977e-07
0.177271
-1.31029e-06
0.177283
-3.23777e-06
0.177294
-4.88253e-06
0.177302
-5.90488e-06
0.177309
-6.95714e-06
0.177316
-7.01725e-06
0.177321
-7.52077e-06
-6.37972e-06
0.177647
-0.177566
0.177714
0.177768
0.177812
0.177846
0.177874
0.177895
0.177911
0.177922
0.177929
0.177933
0.177934
0.177932
0.177929
0.177924
0.177918
0.177911
0.177904
0.177897
0.0902329
0.015949
-0.0890181
0.0915122
0.0255923
0.0928778
0.035125
0.0942809
0.0444416
0.0957667
0.0532709
0.0971879
0.0616511
0.0983187
0.0692606
0.0991707
0.0756105
0.0965544
0.0820757
0.0804973
0.0927406
0.0148382
-0.0916298
0.0939585
0.0243743
0.0953239
0.0337596
0.0968006
0.042965
0.0983468
0.0517247
0.100122
0.0598763
0.101497
0.0678849
0.103536
0.0735721
0.103913
0.0816983
0.0821406
0.0955212
0.0138254
-0.0945084
0.0966927
0.0232029
0.098016
0.0324362
0.0995634
0.0414176
0.101122
0.0501663
0.103116
0.0578822
0.104821
0.0661795
0.106991
0.0714025
0.109024
0.0796656
0.0819339
0.0984769
0.0128858
-0.0975373
0.0996405
0.0220393
0.10095
0.0311271
0.102561
0.0398067
0.104198
0.0485286
0.106215
0.0558656
0.108249
0.0641455
0.110253
0.0693979
0.112882
0.0770366
0.0803825
0.101534
0.0119907
-0.100639
0.102711
0.0208622
0.104068
0.02977
0.10573
0.0381447
0.107526
0.0467327
0.109513
0.0538787
0.11179
0.0618687
0.113841
0.0673469
0.116568
0.0743095
0.0781042
0.104629
0.0111121
-0.10375
0.105826
0.0196651
0.107279
0.0283172
0.109004
0.036419
0.110993
0.0447445
0.113062
0.0518089
0.115526
0.0594052
0.117834
0.0650387
0.12058
0.0715636
0.0754769
0.107694
0.01023
-0.106811
0.108921
0.0184381
0.110488
0.0267496
0.112322
0.0345854
0.114506
0.0425599
0.116791
0.0495239
0.119442
0.0567544
0.12207
0.0624107
0.124949
0.0686843
0.0726074
0.110669
0.00933605
-0.109776
0.111942
0.0171653
0.113625
0.0250672
0.115611
0.0325986
0.117992
0.0401799
0.120555
0.046961
0.123436
0.0538733
0.126397
0.0594497
0.129557
0.0655244
0.0694528
0.113521
0.00843057
-0.112616
0.114852
0.0158342
0.116643
0.0232766
0.118802
0.0304391
0.121381
0.0376014
0.12423
0.0441115
0.127399
0.0507051
0.130716
0.0561326
0.134262
0.0619782
0.0659266
0.116248
0.0075182
-0.115336
0.117638
0.0144442
0.119527
0.0213875
0.121852
0.0281145
0.124629
0.0348237
0.127753
0.0409879
0.131243
0.0472149
0.134936
0.0524401
0.13892
0.0579939
0.0619498
0.118884
0.00660672
-0.117973
0.120322
0.0130063
0.122296
0.0194135
0.124763
0.0256477
0.127729
0.0318577
0.131103
0.037614
0.134911
0.043407
0.138976
0.0483753
0.143404
0.0535654
0.057476
0.121493
0.00570704
-0.120594
0.122961
0.011539
0.125001
0.0173733
0.127581
0.0230673
0.130711
0.028728
0.134302
0.0340226
0.138393
0.0393165
0.142804
0.0439642
0.147646
0.0487233
0.0525028
0.124141
0.00483348
-0.123268
0.125616
0.0100644
0.127701
0.0152882
0.130368
0.0203997
0.133631
0.0254654
0.137406
0.0302476
0.141733
0.0349894
0.146451
0.039246
0.151655
0.04352
0.0470682
0.126838
0.00401158
-0.126016
0.128302
0.00860058
0.130414
0.0131756
0.133151
0.0176629
0.136523
0.0220938
0.140457
0.0263132
0.144984
0.0304624
0.149972
0.0342579
0.155486
0.0380061
0.041228
0.129486
0.0032523
-0.128727
0.130931
0.0071559
0.133064
0.0110427
0.135865
0.0148623
0.139336
0.0186229
0.143419
0.0222292
0.148129
0.0257524
0.153364
0.0290235
0.159158
0.0322124
0.0350283
0.131893
0.00254859
-0.131189
0.133324
0.00572434
0.135482
0.00888496
0.138349
0.0119949
0.14192
0.0150517
0.146151
0.0179984
0.151039
0.0208643
0.156507
0.0235557
0.162566
0.0261539
0.0284982
0.133878
0.00188001
-0.133209
0.135309
0.00429285
0.1375
0.00669469
0.140435
0.00905957
0.144104
0.0113826
0.148473
0.0136298
0.153528
0.0158092
0.15921
0.0178739
0.165512
0.0198517
0.021668
0.135388
0.00123213
-0.13474
0.136825
0.00285628
0.139045
0.00447402
0.142038
0.00606706
0.145789
0.00763154
0.15027
0.00914832
0.155463
0.0106164
0.161321
0.012016
0.167823
0.0133492
0.01459
0.136451
0.000606997
-0.135826
0.137884
0.00142298
0.140121
0.0022378
0.143148
0.00303982
0.146952
0.00382733
0.151509
0.00459163
0.156795
0.00533051
0.162773
0.00603747
0.169414
0.00670864
0.00733797
0.137032
-0.136425
0.138455
0.140692
0.143732
0.14756
0.152151
0.157482
0.163519
0.170228
0.0425324
0.0529991
-0.0470397
-0.0484918
0.0365743
0.0518546
-0.0458965
0.0309812
0.0511554
-0.0455622
0.0256672
0.0509947
-0.0456807
0.0205265
0.0512896
-0.0461489
0.0154998
0.0520327
-0.0470059
0.0105779
0.0531043
-0.0481823
0.00589532
0.0533585
-0.0486759
0.00196627
0.048477
-0.044548
0.0278872
-0.025921
0.0403866
0.0588576
-0.0462451
0.0346364
0.0576049
0.0291379
0.0566539
0.0239293
0.0562033
0.018942
0.0562769
0.0141047
0.0568699
0.00941467
0.0577943
0.00504717
0.057726
0.00155077
0.0519734
0.029438
0.0373759
0.0643548
-0.0428731
0.0319338
0.063047
0.026667
0.0619207
0.0216555
0.0612147
0.0168831
0.0610493
0.012299
0.061454
0.00792106
0.0621723
0.00397357
0.0616735
0.00103139
0.0549156
0.0304694
0.0333221
0.0694555
-0.0384228
0.0283114
0.0680577
0.0234303
0.0668018
0.0187565
0.0658884
0.0143076
0.0654981
0.0100658
0.0656958
0.00608855
0.0661495
0.00267224
0.0650898
0.00040469
0.0571831
0.0308741
0.0283132
0.0740943
-0.032952
0.0237985
0.0725724
0.0194115
0.0711889
0.0152005
0.0700994
0.011191
0.0695077
0.00739564
0.0694912
0.00391768
0.0696275
0.00112643
0.0678811
-0.000286419
0.058596
0.0305877
0.0223749
0.0781601
-0.0264408
0.0184521
0.0764953
0.0146569
0.074984
0.0110131
0.0737431
0.00754673
0.0729741
0.00430317
0.0727348
0.00145188
0.0724788
-0.000583514
0.0699165
-0.000991497
0.059004
0.0295962
0.0156239
0.0815347
-0.0189984
0.0123758
0.0797434
0.00924827
0.0781115
0.00625496
0.0767365
0.00342177
0.0758073
0.000827173
0.0753294
-0.00126937
0.0745753
-0.00230578
0.0709529
-0.00171403
0.0584122
0.0278821
0.00816056
0.0841169
-0.0107428
0.00565265
0.0822513
0.00327545
0.0804887
0.00100991
0.079002
-0.00112265
0.0779398
-0.00297591
0.0771826
-0.00419502
0.0757944
-0.00416891
0.0709267
-0.00241242
0.0566557
0.0254697
4.18177e-05
0.0859631
-0.00188796
-0.00159915
0.0838923
-0.00317217
0.0820617
-0.0046738
0.0805036
-0.00603064
0.0792967
-0.0070439
0.0781959
-0.00726446
0.076015
-0.00602246
0.0696847
-0.00302621
0.0536595
0.0224435
-0.00837573
0.00756508
-0.0091987
-0.00996398
-0.0106573
-0.0111836
-0.01126
-0.0103354
-0.00773958
-0.00348464
0.0347787
0.0032982
-0.0380769
0.0313526
0.00342606
0.0277784
0.0035742
0.024035
0.00374335
0.0200939
0.00394116
0.0159193
0.00417459
0.0114863
0.00443298
0.00687324
0.00461309
0.00255246
0.00432079
0.00255246
0.0353234
0.00672351
-0.0387487
0.0317854
0.00696402
0.0281144
0.00724526
0.024289
0.00756876
0.02028
0.00795012
0.0160507
0.00840385
0.0115731
0.00891058
0.00692219
0.00926404
0.00257718
0.0086658
0.00512963
0.0363508
0.0103902
-0.0400175
0.0326002
0.0107146
0.0287448
0.0111007
0.0247627
0.0115508
0.0206239
0.012089
0.0162898
0.0127379
0.0117301
0.0134703
0.00701474
0.0139794
0.0026135
0.013067
0.00774313
0.0377413
0.0143853
-0.0417364
0.0337002
0.0147557
0.0295922
0.0152087
0.0253952
0.0157478
0.0210783
0.0164059
0.0166012
0.017215
0.0119301
0.0181415
0.00712849
0.0187809
0.00265813
0.0175374
0.0104013
0.0393315
0.0187615
-0.0437077
0.0349511
0.0191361
0.0305471
0.0196127
0.0260987
0.0201961
0.0215745
0.0209302
0.016932
0.0218574
0.0121338
0.0229397
0.00723779
0.0236769
0.00269809
0.0220771
0.0130994
0.0409361
0.0235286
-0.0457033
0.0362014
0.0238708
0.0314845
0.0243296
0.0267707
0.0249099
0.0220295
0.0256714
0.0172167
0.0266702
0.0122922
0.0278643
0.00730984
0.0286593
0.00271791
0.026669
0.0158173
0.0423381
0.0286732
-0.0474828
0.0372572
0.0289517
0.0322452
0.0293416
0.0272894
0.0298657
0.0223518
0.030609
0.0173859
0.0316361
0.0123533
0.0328968
0.0073096
0.033703
0.00270112
0.0312775
0.0185184
0.0434317
0.0341598
-0.0489183
0.0380094
0.0343741
0.0327233
0.0346277
0.0275552
0.0350338
0.0224531
0.0357111
0.017368
0.0367212
0.0122639
0.038001
0.00720174
0.0387652
0.00263144
0.0358478
0.0211498
0.0438023
0.0400978
-0.0497403
0.0381189
0.0400575
0.0327009
0.0400456
0.0274202
0.0403146
0.0222228
0.0409086
0.0170795
0.0418644
0.0119638
0.0431167
0.00694838
0.0437806
0.00249311
0.0403031
0.0236429
0.0435875
-0.0505294
0.0377485
0.0322319
0.0268657
0.0216254
0.0164839
0.0114183
0.00652291
0.00227802
0.0418056
-0.00011914
0.0419237
-0.000118081
0.0420391
-0.000115396
0.0421471
-0.000108048
0.0422437
-9.65936e-05
0.0423249
-8.12021e-05
0.0423864
-6.14394e-05
0.0424228
-3.64596e-05
0.0424268
-3.92866e-06
0.0423987
2.80398e-05
0.0423314
6.73368e-05
0.0422165
0.000114873
0.042045
0.000171531
0.0418063
0.000238694
0.0414881
0.000318176
0.0410759
0.000412201
0.0405523
0.000523604
0.0398966
0.000655753
0.039084
0.000812597
0.00100711
0.0426417
-0.000238986
0.0427589
-0.000235345
0.0428718
-0.000228216
0.0429765
-0.000212768
0.0430695
-0.000189579
0.0431468
-0.000158512
0.043204
-0.000118631
0.0432357
-6.82181e-05
0.0432332
-1.42898e-06
0.0432001
6.1205e-05
0.0431263
0.000141128
0.0430038
0.000237391
0.0428234
0.000351916
0.0425745
0.000487559
0.0422447
0.000647969
0.0418193
0.000837574
0.0412809
0.00106208
0.0406085
0.00132814
0.0397777
0.00164342
0.00203606
0.0442855
-0.000349327
0.0443935
-0.000343391
0.0444974
-0.000332143
0.044593
-0.000308344
0.0446762
-0.000272788
0.0447429
-0.000225182
0.0447883
-0.000164025
0.0448065
-8.64279e-05
0.0447936
1.14394e-05
0.0447463
0.000108489
0.0446566
0.000230824
0.0445162
0.000377833
0.0443157
0.000552432
0.0440443
0.000758962
0.0436893
0.00100295
0.0432359
0.00129101
0.0426662
0.00163173
0.0419593
0.00203507
0.0410914
0.0025113
0.00311
0.0466763
-0.000438952
0.0467636
-0.000430729
0.046847
-0.000415476
0.0469217
-0.000383108
0.0469833
-0.000334369
0.0470271
-0.000268963
0.047048
-0.000184932
0.04704
-7.84026e-05
0.0470045
4.68723e-05
0.04693
0.000182991
0.0468104
0.000350479
0.0466372
0.000551003
0.0464009
0.000788691
0.0460905
0.00106941
0.0456929
0.00140054
0.0451929
0.00179101
0.0445725
0.0022521
0.0438098
0.00279782
0.0428834
0.00343771
0.00425695
0.0497321
-0.000490715
0.0497813
-0.000479931
0.049826
-0.000460135
0.0498615
-0.000418604
0.0498829
-0.000355814
0.0498852
-0.000271259
0.0498632
-0.000162921
0.0498062
-2.13635e-05
0.0497278
0.000125208
0.0496062
0.000304627
0.0494358
0.00052089
0.0492086
0.00077822
0.0489149
0.00108238
0.0485432
0.00144113
0.0480803
0.00186339
0.0475103
0.00236102
0.0468154
0.00294696
0.0459711
0.00364214
0.0449614
0.0044474
0.00551069
0.0533588
-0.000480632
0.0533453
-0.000466359
0.0533251
-0.000440006
0.0532939
-0.000387372
0.0532466
-0.0003085
0.053178
-0.000202683
0.0530795
-6.43518e-05
0.0529636
9.45147e-05
0.0528098
0.000279031
0.0526107
0.000503681
0.0523602
0.000771393
0.0520497
0.00108874
0.0516696
0.00146249
0.0512075
0.00190317
0.0506508
0.00242017
0.0499812
0.00303058
0.0491829
0.00374523
0.0482254
0.00459962
0.0471033
0.00556954
0.00691072
0.0574606
-0.000376045
0.0573506
-0.000356299
0.0572304
-0.000319865
0.0570978
-0.000254776
0.0569472
-0.000157836
0.0567641
-1.96435e-05
0.0565699
0.00012993
0.0563462
0.00031818
0.0560798
0.0005454
0.0557667
0.000816766
0.0554003
0.00113788
0.0549708
0.00151824
0.0544693
0.00196395
0.0538818
0.00249068
0.0531976
0.00310435
0.0523943
0.00383389
0.051462
0.00467757
0.0503565
0.00570511
0.0490882
0.00683776
0.00851619
0.0619479
-0.000132219
0.0616984
-0.000106783
0.0614317
-5.32064e-05
0.0611448
3.2147e-05
0.0608444
0.000142576
0.0605335
0.000291269
0.0601881
0.000475295
0.0598068
0.000699517
0.0593848
0.000967359
0.0589147
0.00128686
0.0583902
0.00166238
0.0578002
0.00210822
0.0571377
0.00262647
0.0563841
0.00324427
0.0555336
0.00395483
0.0545523
0.00481527
0.0534483
0.0057815
0.0521543
0.00699918
0.0507141
0.00827788
0.0103121
0.0667376
0.000300784
0.0662915
0.000339298
0.0658341
0.00040421
0.0653646
0.000501657
0.0648723
0.000634928
0.0643547
0.000808857
0.0638066
0.00102334
0.063223
0.00128318
0.0625992
0.00159113
0.0619267
0.00195932
0.0612005
0.00238866
0.0604069
0.00290181
0.0595437
0.00348964
0.0585867
0.00420125
0.0575423
0.00499929
0.0563469
0.00601061
0.0550406
0.00708782
0.0534745
0.00856524
0.0518323
0.00992009
0.012404
0.0718337
0.00104
0.0711265
0.00104645
0.070419
0.00111172
0.0696956
0.00122509
0.0689495
0.00138106
0.0681776
0.00158072
0.0673775
0.00182349
0.0665436
0.00211699
0.0656725
0.00246227
0.0647547
0.0028771
0.0637871
0.00335624
0.0627531
0.00393582
0.0616565
0.00458624
0.0604649
0.00539291
0.059209
0.00625517
0.0578125
0.00740712
0.0564028
0.0084975
0.0546926
0.0102754
0.0531107
0.011502
0.0149853
0.0713159
0.000998128
0.0713346
0.00102779
0.0713334
0.00111292
0.0713217
0.00123676
0.0713031
0.00139969
0.071279
0.00160478
0.0712538
0.00184871
0.0712295
0.00214127
0.0712113
0.00248046
0.0711992
0.00288918
0.0712039
0.00335158
0.0712235
0.00391625
0.0712827
0.00452698
0.0713687
0.00530695
0.0715436
0.0060803
0.0717619
0.00718882
0.072183
0.00807637
0.0727145
0.00974396
0.0738515
0.010365
0.0129566
0.0758803
0.0766186
0.000941112
0.0766305
0.00101593
0.0766304
0.00111297
0.0766251
0.00124214
0.0766122
0.00141252
0.0765942
0.00162279
0.0765778
0.00186515
0.0765663
0.0021528
0.0765648
0.00248196
0.0765747
0.00287925
0.0766061
0.00332014
0.0766622
0.00386018
0.0767616
0.00442758
0.0769101
0.00515845