/*--------------------------------*- C++ -*----------------------------------*\
| =========                 |                                                 |
| \\      /  F ield         | OpenFOAM: The Open Source CFD Toolbox           |
|  \\    /   O peration     | Version:  4.1                                   |
|   \\  /    A nd           | Web:      www.OpenFOAM.org                      |
|    \\/     M anipulation  |                                                 |
\*---------------------------------------------------------------------------*/
FoamFile
{
    version     2.0;
    format      ascii;
    class       volVectorField;
    location    "11.3";
    object      U;
}
// * * * * * * * * * * * * * * * * * * * * * * * * * * * * * * * * * * * * * //

dimensions      [0 1 -1 0 0 0 0];

internalField   nonuniform List<vector> 
2000
(
(-0.0309755 0.0261326 -1.02205e-20)
(-0.0145515 0.0325665 0)
(0.0689725 0.0254635 -2.27752e-20)
(0.207642 0.0151833 -1.17484e-20)
(0.388292 0.00833117 2.20149e-20)
(0.592499 0.00728878 3.34455e-20)
(0.802134 0.0127173 -1.06197e-20)
(0.995835 0.0201442 0)
(1.18792 0.0345403 1.0011e-20)
(1.30815 0.0456185 0)
(-0.0268691 0.0205979 5.24069e-21)
(0.0219752 0.0156601 -5.91984e-21)
(0.157994 0.00501599 1.95015e-20)
(0.35843 -0.00211495 3.1169e-20)
(0.594952 -0.00101006 -7.50717e-22)
(0.836205 0.0077 -1.14102e-20)
(1.0577 0.0211568 9.91247e-21)
(1.24564 0.0343247 1.01987e-20)
(1.40134 0.0494395 -1.00104e-20)
(1.49704 0.0513744 -1.94076e-20)
(-0.016427 0.0131867 -3.90259e-21)
(0.0798899 -0.00271567 3.65546e-21)
(0.282333 -0.0120106 -9.65553e-21)
(0.547011 -0.00993251 -1.25182e-21)
(0.824225 0.00285151 -1.02515e-20)
(1.07429 0.0211268 -1.03343e-20)
(1.27743 0.039462 -1.03123e-20)
(1.43062 0.0538523 -1.01984e-20)
(1.54059 0.0640973 -1.02218e-20)
(1.61842 0.0658085 1.01937e-20)
(0.00266063 0.00427893 -5.96878e-22)
(0.163099 -0.0198715 2.43358e-21)
(0.440123 -0.0207393 0)
(0.756719 -0.00444 -1.02088e-20)
(1.04577 0.0198193 8.19489e-21)
(1.27368 0.0434562 0)
(1.43675 0.0615192 0)
(1.54675 0.0720762 0)
(1.62316 0.0777865 1.02222e-20)
(1.67293 0.0758825 -2.08396e-20)
(0.0326023 -0.00504573 -5.52774e-22)
(0.272826 -0.0314085 -2.22489e-23)
(0.620932 -0.0164665 -2.04187e-21)
(0.962963 0.0149747 -4.40238e-21)
(1.23289 0.046197 -3.75216e-21)
(1.41905 0.0694524 -4.42832e-21)
(1.5382 0.0830492 0)
(1.61468 0.0887191 -5.31597e-21)
(1.66806 0.0896934 2.79441e-20)
(1.71168 0.0849604 -3.7724e-20)
(0.074987 -0.0129075 -2.50676e-21)
(0.405541 -0.0320905 1.55071e-21)
(0.806876 0.00300195 4.16992e-21)
(1.14347 0.0456772 -4.91369e-21)
(1.37388 0.0777167 1.19742e-20)
(1.5147 0.0962932 -3.29058e-21)
(1.59846 0.104073 0)
(1.65296 0.104936 5.31637e-21)
(1.69639 0.1021 -5.57335e-21)
(1.73672 0.0964069 -2.51739e-20)
(0.13008 -0.0167952 0)
(0.55197 -0.0178078 0)
(0.97918 0.0365952 1.35332e-21)
(1.28659 0.0841038 -1.25983e-21)
(1.47088 0.11193 4.10586e-21)
(1.57253 0.123733 -3.85481e-21)
(1.63139 0.125511 -1.15404e-20)
(1.67369 0.122054 1.09083e-20)
(1.71236 0.116188 1.31574e-20)
(1.75233 0.109341 -6.26562e-21)
(0.196213 -0.0140387 2.60828e-21)
(0.698942 0.0127707 0)
(1.12491 0.0814622 1.0424e-21)
(1.39068 0.127546 -3.67394e-21)
(1.53136 0.147889 4.60052e-21)
(1.60281 0.152042 0)
(1.6458 0.148038 0)
(1.6818 0.140604 0)
(1.71916 0.132042 1.47302e-20)
(1.75958 0.124162 -1.40019e-20)
(0.269533 -0.00252333 -1.47686e-21)
(0.83346 0.0580774 -2.70483e-22)
(1.23828 0.134497 -1.46395e-22)
(1.45912 0.174162 -6.28961e-22)
(1.56277 0.185075 -5.61699e-22)
(1.61269 0.181359 -2.40217e-21)
(1.64629 0.171842 0)
(1.67962 0.160665 2.03005e-21)
(1.71679 0.149674 1.05335e-20)
(1.75755 0.140144 -7.96454e-21)
(0.344503 0.0187562 0)
(0.946057 0.114784 -7.89213e-22)
(1.31826 0.192764 0)
(1.49658 0.222545 9.96909e-23)
(1.571 0.223016 1.07019e-22)
(1.60646 0.211516 1.46771e-21)
(1.63502 0.196701 0)
(1.66749 0.181866 -2.03025e-21)
(1.70503 0.168371 -2.15408e-21)
(1.74634 0.156669 -2.46399e-21)
(-0.00607391 0.00603839 0)
(-0.02544 0.0117811 2.08133e-21)
(-0.054094 0.0141931 0)
(-0.0828565 0.0150249 2.59159e-21)
(-0.109708 0.0151333 7.81248e-22)
(-0.134409 0.0150056 -1.438e-21)
(-0.157126 0.014921 1.35424e-21)
(-0.178235 0.0150289 -1.22226e-21)
(-0.198274 0.015431 -2.20561e-23)
(-0.218029 0.0162184 -1.04332e-21)
(-0.0071894 0.0173688 6.69067e-21)
(-0.0263624 0.0340803 -4.15125e-21)
(-0.0529952 0.0412041 3.71714e-21)
(-0.0789552 0.0436417 -1.72177e-21)
(-0.102489 0.0438711 -7.8113e-21)
(-0.12338 0.0433303 2.91839e-21)
(-0.141787 0.0428648 0)
(-0.158023 0.0429601 1.21815e-21)
(-0.172497 0.0439541 1.11686e-21)
(-0.186363 0.0461302 0)
(-0.00925154 0.0266263 -4.46428e-21)
(-0.0282122 0.0528462 0)
(-0.0512406 0.0642701 -1.10384e-20)
(-0.0721148 0.0681117 1.35221e-20)
(-0.0895671 0.0681978 -3.14557e-21)
(-0.10348 0.0668136 0)
(-0.114028 0.0653603 0)
(-0.121464 0.064738 0)
(-0.125896 0.0656336 -8.80662e-21)
(-0.128744 0.068626 8.36973e-21)
(-0.0119535 0.0330122 0)
(-0.0309499 0.0664928 7.84182e-21)
(-0.049498 0.0813846 -1.44537e-20)
(-0.0637562 0.0862257 6.6931e-21)
(-0.0731729 0.0857894 -6.08898e-21)
(-0.0778566 0.0829978 1.69571e-20)
(-0.0780586 0.0797016 -1.94601e-22)
(-0.0740802 0.0772172 -9.8264e-21)
(-0.0656977 0.0767741 -8.95291e-21)
(-0.0532988 0.0799341 1.27947e-20)
(-0.0150058 0.0364308 -8.37887e-21)
(-0.0344468 0.074342 1.52639e-20)
(-0.0482306 0.0913746 -5.62397e-23)
(-0.0549332 0.0965395 6.02218e-23)
(-0.0548985 0.0951446 -6.03774e-21)
(-0.0486059 0.090479 1.70265e-20)
(-0.0364523 0.0846155 0)
(-0.0188969 0.0790549 4.97574e-21)
(0.00449994 0.0756278 -4.69827e-21)
(0.0353972 0.0779938 1.69332e-20)
(-0.0182444 0.0373741 -1.59053e-22)
(-0.0383994 0.0765941 -1.50111e-20)
(-0.0472067 0.0939478 -6.99993e-21)
(-0.0453481 0.0984379 -6.35179e-21)
(-0.0340878 0.0956112 -6.06511e-21)
(-0.0143424 0.0889089 -5.66317e-21)
(0.013284 0.0803991 0)
(0.0480524 0.0714314 -4.97546e-21)
(0.0901379 0.0638647 -1.44934e-20)
(0.146709 0.0640486 4.32162e-21)
(-0.0216472 0.0366511 2.67323e-23)
(-0.0421634 0.0740702 -7.19212e-21)
(-0.0449668 0.0895867 0)
(-0.0323646 0.0920967 1.3003e-20)
(-0.00634566 0.087305 -1.20202e-20)
(0.0318072 0.0787335 0)
(0.0812605 0.0684606 0)
(0.140754 0.0576521 0)
(0.207121 0.0464302 9.92999e-21)
(0.303351 0.044856 1.7872e-20)
(-0.0251976 0.0350146 7.36779e-21)
(-0.044478 0.0678131 -6.90163e-21)
(-0.0382891 0.0792919 -1.30295e-20)
(-0.0101984 0.0784522 1.9056e-22)
(0.0373857 0.0712391 -1.20228e-20)
(0.102646 0.0613004 -1.15212e-20)
(0.183938 0.0508646 -1.10377e-20)
(0.278986 0.04157 -1.05893e-20)
(0.376176 0.0295007 -9.92889e-21)
(0.526188 0.0306729 9.96003e-21)
(-0.0285696 0.0328171 2.01832e-20)
(-0.0431189 0.0586558 7.02766e-21)
(-0.0218849 0.0643102 2.60656e-20)
(0.0301963 0.0592528 1.25704e-20)
(0.11008 0.0498362 1.54783e-22)
(0.214224 0.0397891 1.16965e-20)
(0.338155 0.0313965 -1.09851e-20)
(0.475998 0.0268799 1.05881e-20)
(0.60952 0.0189818 -1.01676e-20)
(0.805118 0.0287148 1.94863e-20)
(-0.0309264 0.0300146 -1.31951e-20)
(-0.0346064 0.0469398 0)
(0.0112924 0.0459019 -1.25382e-20)
(0.0996515 0.0370567 7.80604e-23)
(0.224797 0.0271204 3.67317e-22)
(0.378227 0.0196299 -1.1636e-20)
(0.549829 0.0166553 3.28154e-20)
(0.724972 0.0181285 0)
(0.897344 0.0205204 1.01661e-20)
(1.08892 0.0383529 0)
(-0.237981 0.0172114 0)
(-0.25928 0.0171571 8.77866e-22)
(-0.280278 0.0168041 -1.70785e-21)
(-0.300903 0.0163337 7.29856e-22)
(-0.32106 0.0157433 0)
(-0.340581 0.0150204 -6.47095e-22)
(-0.359286 0.0141595 6.50301e-22)
(-0.376987 0.0131599 0)
(-0.393494 0.0120268 0)
(-0.408621 0.0107713 -5.18483e-23)
(-0.422192 0.00941075 0)
(-0.43405 0.00796952 0)
(-0.444071 0.00647976 0)
(-0.452181 0.00498199 0)
(-0.458367 0.00352617 3.06875e-23)
(-0.462666 0.00217175 -3.08464e-23)
(-0.465134 0.000978781 0)
(-0.465936 -2.13375e-05 4.89676e-24)
(-0.46564 -0.000842324 -4.92252e-24)
(-0.465314 -0.0014272 0)
(-0.20172 0.0489991 0)
(-0.220675 0.0490968 -2.25214e-22)
(-0.239339 0.0483436 0)
(-0.257843 0.0472527 -2.95968e-21)
(-0.276242 0.0458149 2.88903e-21)
(-0.294383 0.0439874 -1.68488e-22)
(-0.312095 0.0417466 1.15026e-21)
(-0.329201 0.0390837 -2.30694e-21)
(-0.345514 0.0360054 1.78545e-21)
(-0.360841 0.0325352 -9.35566e-22)
(-0.374987 0.0287153 -6.24013e-22)
(-0.387765 0.0246088 1.06369e-21)
(-0.399005 0.0203029 -5.07473e-22)
(-0.408569 0.0159131 -1.90324e-22)
(-0.416365 0.0115876 1.50553e-22)
(-0.422343 0.00750919 -1.95374e-23)
(-0.42651 0.00387459 -1.20799e-23)
(-0.429039 0.000831587 -1.37424e-23)
(-0.430372 -0.0015772 1.3809e-23)
(-0.431005 -0.00321439 -2.49986e-25)
(-0.136117 0.0732384 2.37954e-22)
(-0.150339 0.0739747 2.2561e-22)
(-0.164329 0.0735491 2.14608e-22)
(-0.178389 0.0726443 0)
(-0.192884 0.0712167 3.18263e-21)
(-0.207721 0.0691826 -2.48651e-21)
(-0.222757 0.0664864 0)
(-0.237853 0.0630943 2.69191e-22)
(-0.252857 0.0589943 1.17532e-22)
(-0.267595 0.0541969 -1.24768e-21)
(-0.281881 0.0487396 2.70438e-22)
(-0.29551 0.0426923 1.31907e-21)
(-0.308271 0.0361644 4.88672e-23)
(-0.319948 0.0293151 4.02274e-23)
(-0.330334 0.0223672 2.30492e-23)
(-0.339227 0.0156185 -3.19964e-23)
(-0.346489 0.00943317 4.35262e-23)
(-0.352209 0.00419154 2.62574e-23)
(-0.356672 0.000201508 -2.35579e-24)
(-0.359413 -0.00226036 -1.6279e-24)
(-0.050989 0.085763 7.24447e-21)
(-0.0590376 0.0877483 -3.96414e-22)
(-0.0666134 0.0884328 -6.60851e-22)
(-0.074266 0.0885583 -6.70773e-21)
(-0.0827638 0.0881058 -5.64956e-22)
(-0.0921394 0.0869305 -1.68974e-22)
(-0.102299 0.0849258 4.27371e-21)
(-0.113166 0.0820266 -2.73144e-21)
(-0.124665 0.0781905 -2.0059e-21)
(-0.136705 0.073393 1.51429e-21)
(-0.149168 0.067634 -2.85405e-22)
(-0.16191 0.0609469 -1.32546e-21)
(-0.174757 0.0534086 -4.84611e-23)
(-0.187499 0.0451539 -2.69665e-22)
(-0.199889 0.036402 1.85589e-22)
(-0.211613 0.027485 5.22729e-23)
(-0.22234 0.0188782 -5.73542e-23)
(-0.23196 0.0112333 0)
(-0.240608 0.00538112 1.46357e-23)
(-0.246855 0.00211275 2.09492e-24)
(0.0476621 0.0852813 -1.65417e-20)
(0.0465893 0.0891013 6.85914e-21)
(0.0450244 0.0911645 -7.3502e-21)
(0.0440493 0.0926564 0)
(0.0423641 0.0937172 3.79559e-22)
(0.0395855 0.0940993 5.32414e-21)
(0.0357524 0.0936013 -2.93641e-22)
(0.0308989 0.0921308 -6.20958e-22)
(0.0250093 0.0896317 -4.12241e-21)
(0.0180623 0.0860493 -1.96421e-22)
(0.0100571 0.0813413 0)
(0.00101778 0.0754931 1.23723e-22)
(-0.0090053 0.0685255 0)
(-0.0199262 0.0605025 6.11268e-23)
(-0.031613 0.0515502 0)
(-0.0438468 0.0418933 0)
(-0.0562762 0.0319063 -1.08927e-24)
(-0.0685982 0.0222248 -2.84819e-23)
(-0.0809582 0.0140436 2.99481e-23)
(-0.0919263 0.00923655 -1.40662e-23)
(0.166653 0.0742012 0)
(0.170768 0.0801945 4.81813e-22)
(0.17272 0.0834209 1.44922e-20)
(0.176303 0.0860185 -1.40409e-20)
(0.180021 0.0885115 4.17332e-22)
(0.18286 0.0904989 0)
(0.184763 0.0916493 4.99584e-21)
(0.1858 0.0918635 -9.04868e-21)
(0.185899 0.0910969 4.61979e-21)
(0.184925 0.0892769 2.21491e-22)
(0.182764 0.0863286 1.80278e-22)
(0.179324 0.0822047 1.40297e-22)
(0.174526 0.0768934 0)
(0.168307 0.0704162 -3.12369e-22)
(0.160627 0.0628342 5.91354e-22)
(0.151492 0.0542629 -1.72768e-22)
(0.141009 0.0448986 -4.25509e-24)
(0.12939 0.0350356 -1.47564e-23)
(0.116443 0.0254269 1.59439e-23)
(0.102317 0.0184789 -1.6128e-23)
(0.326077 0.0583952 -1.8426e-20)
(0.331129 0.0663324 0)
(0.332222 0.0699917 4.98551e-22)
(0.336254 0.0731123 -9.25915e-22)
(0.341851 0.0765744 -8.58577e-22)
(0.347198 0.0796639 -4.04159e-22)
(0.352079 0.0819557 -3.65877e-22)
(0.356657 0.0834265 4.38442e-21)
(0.360839 0.0840719 -5.22193e-21)
(0.364393 0.0838038 -3.80044e-21)
(0.367112 0.0825252 3.15428e-21)
(0.368824 0.0801696 -2.95972e-22)
(0.369358 0.0767096 7.25835e-22)
(0.36855 0.0721442 -3.29801e-22)
(0.366232 0.0665192 -5.48008e-22)
(0.362267 0.0599126 -2.37006e-23)
(0.356522 0.052487 -2.92883e-23)
(0.348941 0.0444039 -1.43285e-23)
(0.33956 0.0359246 7.12828e-23)
(0.326203 0.0280532 9.53354e-24)
(0.544093 0.046464 0)
(0.545574 0.0546381 1.66409e-20)
(0.542149 0.0571065 -1.70683e-20)
(0.542849 0.0598852 4.76146e-22)
(0.546458 0.0635894 9.05595e-22)
(0.550587 0.0668941 4.03809e-22)
(0.554917 0.0694399 7.53475e-22)
(0.55968 0.0713903 0)
(0.564751 0.0727615 2.81746e-22)
(0.569835 0.0734198 2.38932e-22)
(0.574675 0.073247 2.19264e-22)
(0.579077 0.0721625 3.32182e-22)
(0.582814 0.0701353 0)
(0.585686 0.0671409 0)
(0.58744 0.0632371 4.90817e-23)
(0.587893 0.0584616 2.16556e-22)
(0.58682 0.0530445 -1.51143e-22)
(0.583884 0.0470244 1.25169e-24)
(0.57974 0.0411541 -3.55669e-23)
(0.570601 0.0342348 7.89054e-24)
(0.813557 0.0459354 -2.02984e-20)
(0.810433 0.0509785 0)
(0.803841 0.0505676 0)
(0.80179 0.0525532 1.58387e-20)
(0.802538 0.0556323 -1.51078e-21)
(0.803894 0.0579803 -2.80259e-20)
(0.805779 0.0596837 1.29688e-20)
(0.808451 0.0610989 0)
(0.81175 0.0622088 0)
(0.815431 0.0628506 0)
(0.819294 0.0629232 -9.55232e-23)
(0.823226 0.0623317 -2.73475e-22)
(0.827006 0.061054 -2.01789e-21)
(0.830504 0.05901 1.94451e-21)
(0.833416 0.0563076 -4.7492e-22)
(0.835624 0.05285 4.34709e-22)
(0.836858 0.0490842 0)
(0.836725 0.044592 5.50947e-24)
(0.835996 0.0410054 5.47978e-24)
(0.831532 0.0358522 0)
(1.10346 0.0488309 2.9449e-22)
(1.10502 0.0460029 1.79053e-20)
(1.1034 0.0448471 -1.77192e-20)
(1.10275 0.0476858 0)
(1.10158 0.0508553 -1.53235e-20)
(1.09975 0.0532795 2.93574e-20)
(1.09807 0.0553322 -1.40466e-20)
(1.09697 0.0571115 0)
(1.09641 0.0584714 -5.10761e-21)
(1.09635 0.0592578 9.45653e-21)
(1.09671 0.0594458 -4.47526e-21)
(1.09751 0.0589435 9.76045e-23)
(1.09856 0.0578184 0)
(1.09986 0.0559322 1.83514e-21)
(1.10107 0.0535654 -2.38676e-21)
(1.10223 0.0504185 6.20719e-22)
(1.10297 0.0473073 2.31761e-22)
(1.10317 0.0433138 -1.82232e-22)
(1.10308 0.0406703 -5.33912e-23)
(1.10128 0.0364648 0)
(1.43239 0.0542146 0)
(1.4125 0.051066 0)
(1.39914 0.0500409 0)
(1.38823 0.0504906 0)
(1.37849 0.0513382 0)
(1.37011 0.0522869 0)
(1.3633 0.0532613 0)
(1.358 0.0540994 0)
(1.3539 0.0547175 0)
(1.35085 0.0549823 0)
(1.34858 0.0549096 0)
(1.34709 0.0543325 0)
(1.34607 0.0533966 0)
(1.34559 0.0518327 0)
(1.34522 0.0500746 0)
(1.3451 0.0475716 0)
(1.34483 0.0453743 0)
(1.34438 0.0422106 0)
(1.34394 0.0404404 0)
(1.34248 0.0371307 0)
(1.58379 0.0617182 0)
(1.5776 0.0624738 0)
(1.57385 0.0624588 0)
(1.57041 0.0619389 0)
(1.56659 0.0614325 0)
(1.56282 0.0610796 0)
(1.55949 0.0608265 0)
(1.55681 0.0604987 0)
(1.55465 0.0600622 0)
(1.55304 0.0593625 0)
(1.55177 0.0584757 0)
(1.55094 0.0571733 0)
(1.55029 0.0557014 0)
(1.54994 0.0536706 0)
(1.54955 0.051676 0)
(1.54927 0.0489648 0)
(1.54884 0.0468051 0)
(1.54816 0.0436513 0)
(1.54763 0.0420454 0)
(1.54604 0.0388188 0)
(1.68957 0.0638498 0)
(1.68845 0.0638262 0)
(1.68863 0.0637283 0)
(1.68949 0.0631466 0)
(1.69042 0.0625011 0)
(1.69137 0.0619764 0)
(1.69243 0.0615649 0)
(1.69375 0.0610679 0)
(1.69521 0.0604764 0)
(1.69687 0.0596006 0)
(1.69852 0.0585857 0)
(1.7003 0.0571501 0)
(1.70192 0.0556436 0)
(1.70361 0.0535738 0)
(1.70496 0.0516764 0)
(1.70634 0.0490391 0)
(1.70719 0.0470936 0)
(1.70805 0.0441025 0)
(1.70833 0.0427191 0)
(1.7086 0.0396636 0)
(1.77056 0.0638854 0)
(1.77239 0.0624605 0)
(1.77451 0.0615706 0)
(1.7773 0.0606567 0)
(1.78054 0.059798 0)
(1.78404 0.05906 0)
(1.78766 0.0584748 0)
(1.79149 0.0578483 0)
(1.79539 0.057198 0)
(1.79945 0.0562971 0)
(1.8034 0.0553314 0)
(1.80745 0.053975 0)
(1.81115 0.0526374 0)
(1.81497 0.0507638 0)
(1.81814 0.0491499 0)
(1.82159 0.0468167 0)
(1.82393 0.0452164 0)
(1.82701 0.0425997 0)
(1.82827 0.0414973 0)
(1.8313 0.0388277 0)
(1.83988 0.0619025 0)
(1.84353 0.0595343 0)
(1.847 0.0579503 0)
(1.8509 0.0566982 0)
(1.85525 0.0556328 0)
(1.85995 0.0546789 0)
(1.86478 0.0538853 0)
(1.86983 0.0530858 0)
(1.87489 0.0523336 0)
(1.88017 0.0513885 0)
(1.88527 0.0504528 0)
(1.89059 0.0491842 0)
(1.89543 0.0480048 0)
(1.90061 0.046353 0)
(1.90486 0.0450045 0)
(1.90983 0.0430102 0)
(1.91313 0.0417189 0)
(1.91803 0.0395157 0)
(1.91992 0.0386501 0)
(1.92532 0.036406 0)
(1.90764 0.0583076 0)
(1.91223 0.0555137 0)
(1.91652 0.0535062 0)
(1.92098 0.0519756 0)
(1.92575 0.0507248 0)
(1.93086 0.0495954 0)
(1.93609 0.0486273 0)
(1.94155 0.0476761 0)
(1.94697 0.0468212 0)
(1.95264 0.0458302 0)
(1.95808 0.044903 0)
(1.96384 0.0437072 0)
(1.96903 0.0426428 0)
(1.97478 0.0411835 0)
(1.9794 0.040036 0)
(1.98513 0.0383394 0)
(1.98878 0.0372808 0)
(1.99473 0.035443 0)
(1.99687 0.0347498 0)
(2.00369 0.032884 0)
(1.97899 0.0539144 0)
(1.98397 0.0510313 0)
(1.98862 0.0488069 0)
(1.99326 0.047059 0)
(1.99804 0.0456379 0)
(2.00312 0.044364 0)
(2.00828 0.04326 0)
(2.01368 0.0421911 0)
(2.01899 0.0412478 0)
(2.02457 0.0402169 0)
(2.02987 0.039286 0)
(2.03557 0.0381472 0)
(2.04063 0.0371623 0)
(2.0464 0.0358573 0)
(2.05092 0.0348548 0)
(2.05681 0.0333979 0)
(2.0604 0.0325073 0)
(2.0667 0.0309634 0)
(2.06882 0.030393 0)
(2.07618 0.0288343 0)
(2.0548 0.0492849 0)
(2.05987 0.0464547 0)
(2.06462 0.0441384 0)
(2.06925 0.0422455 0)
(2.0739 0.040691 0)
(2.07876 0.0393083 0)
(2.08366 0.0381074 0)
(2.08878 0.0369571 0)
(2.09377 0.0359479 0)
(2.09905 0.0348884 0)
(2.10398 0.0339523 0)
(2.10936 0.03286 0)
(2.11405 0.0319333 0)
(2.11955 0.0307504 0)
(2.12374 0.0298551 0)
(2.12942 0.0285853 0)
(2.13276 0.0278185 0)
(2.13893 0.0265029 0)
(2.1409 0.0260226 0)
(2.14818 0.0247034 0)
(2.13349 0.0445817 0)
(2.13857 0.0418568 0)
(2.14333 0.0395395 0)
(2.14794 0.0375864 0)
(2.15244 0.0359597 0)
(2.15708 0.0345165 0)
(2.1617 0.0332628 0)
(2.16651 0.0320715 0)
(2.17114 0.0310278 0)
(2.17605 0.0299606 0)
(2.18057 0.0290299 0)
(2.18556 0.027984 0)
(2.18983 0.027109 0)
(2.19492 0.0260289 0)
(2.19872 0.0252204 0)
(2.20402 0.0241008 0)
(2.20704 0.0234311 0)
(2.21283 0.0222955 0)
(2.21461 0.0218852 0)
(2.22146 0.0207559 0)
(2.21262 0.0397725 0)
(2.21773 0.0371969 0)
(2.22254 0.0349573 0)
(2.22716 0.0330279 0)
(2.23159 0.0313987 0)
(2.23608 0.0299508 0)
(2.24048 0.0286923 0)
(2.24503 0.0275032 0)
(2.24936 0.0264623 0)
(2.25394 0.0254156 0)
(2.25811 0.0245109 0)
(2.26271 0.0235217 0)
(2.2666 0.0227036 0)
(2.27129 0.0217201 0)
(2.27472 0.0209912 0)
(2.27959 0.0200015 0)
(2.28231 0.0194151 0)
(2.28764 0.018431 0)
(2.28924 0.0180788 0)
(2.29553 0.0171105 0)
(2.28978 0.0347949 0)
(2.29497 0.0324203 0)
(2.29989 0.0303235 0)
(2.30458 0.028489 0)
(2.30902 0.026923 0)
(2.31345 0.0255266 0)
(2.31771 0.0243119 0)
(2.32208 0.023169 0)
(2.3262 0.0221701 0)
(2.33052 0.0211767 0)
(2.33443 0.020324 0)
(2.33871 0.0194095 0)
(2.3423 0.0186608 0)
(2.34662 0.0177784 0)
(2.34976 0.0171307 0)
(2.35424 0.016265 0)
(2.3567 0.0157565 0)
(2.36158 0.0149115 0)
(2.36302 0.0146118 0)
(2.36876 0.0137919 0)
(2.36325 0.029615 0)
(2.36855 0.0274881 0)
(2.37359 0.0255847 0)
(2.37838 0.0239017 0)
(2.38287 0.0224552 0)
(2.38727 0.0211624 0)
(2.39147 0.020038 0)
(2.39571 0.0189839 0)
(2.39969 0.0180649 0)
(2.40381 0.0171586 0)
(2.40751 0.0163853 0)
(2.41154 0.015568 0)
(2.4149 0.0149047 0)
(2.41891 0.0141353 0)
(2.42181 0.0135754 0)
(2.42593 0.0128372 0)
(2.42819 0.0124068 0)
(2.43265 0.0117002 0)
(2.43397 0.0114507 0)
(2.43918 0.0107784 0)
(2.43251 0.024261 0)
(2.43782 0.022417 0)
(2.4429 0.0207471 0)
(2.44771 0.0192604 0)
(2.4522 0.0179791 0)
(2.45654 0.0168344 0)
(2.46064 0.0158407 0)
(2.46474 0.0149129 0)
(2.46856 0.014107 0)
(2.47247 0.0133185 0)
(2.47597 0.0126497 0)
(2.47974 0.0119518 0)
(2.48288 0.0113896 0)
(2.48659 0.0107473 0)
(2.48927 0.0102827 0)
(2.49303 0.00968031 0)
(2.4951 0.00932976 0)
(2.49915 0.0087665 0)
(2.50035 0.00856639 0)
(2.50505 0.00804619 0)
(2.49805 0.0188884 0)
(2.50312 0.0173502 0)
(2.50801 0.0159436 0)
(2.51264 0.0146856 0)
(2.51694 0.0136012 0)
(2.52105 0.0126357 0)
(2.52491 0.011801 0)
(2.52872 0.0110266 0)
(2.53225 0.010357 0)
(2.53585 0.00970793 0)
(2.53905 0.00916055 0)
(2.54247 0.00859756 0)
(2.54531 0.0081465 0)
(2.54863 0.00764107 0)
(2.55103 0.00727578 0)
(2.55438 0.00681436 0)
(2.55622 0.00654362 0)
(2.55979 0.00612629 0)
(2.56085 0.00597406 0)
(2.56497 0.0056073 0)
(2.56021 0.013833 0)
(2.56469 0.0126021 0)
(2.56906 0.011468 0)
(2.57319 0.0104497 0)
(2.57701 0.00957288 0)
(2.58063 0.00879705 0)
(2.58399 0.00813048 0)
(2.58729 0.007518 0)
(2.59034 0.00699129 0)
(2.59342 0.00648748 0)
(2.59616 0.00606474 0)
(2.59905 0.00563871 0)
(2.60146 0.00529808 0)
(2.60424 0.00492748 0)
(2.60627 0.00465762 0)
(2.60905 0.00433187 0)
(2.61059 0.00413562 0)
(2.61354 0.00385638 0)
(2.61442 0.00374781 0)
(2.61781 0.00352419 0)
(2.61767 0.00949887 0)
(2.62127 0.00855083 0)
(2.62483 0.00767252 0)
(2.62819 0.00688113 0)
(2.63128 0.00620001 0)
(2.63416 0.00560234 0)
(2.63683 0.00509259 0)
(2.63941 0.00463048 0)
(2.64179 0.00423535 0)
(2.64417 0.00386453 0)
(2.64629 0.00355451 0)
(2.6485 0.00325144 0)
(2.65035 0.00300836 0)
(2.65246 0.00275611 0)
(2.65399 0.00256858 0)
(2.65608 0.00235944 0)
(2.65724 0.00222617 0)
(2.65945 0.00206305 0)
(2.66011 0.00199073 0)
(2.66264 0.00188428 0)
(2.66745 0.00610957 0)
(2.6701 0.00540649 0)
(2.67276 0.00475436 0)
(2.67527 0.00416622 0)
(2.67754 0.00366042 0)
(2.67961 0.00322048 0)
(2.6815 0.00284756 0)
(2.68329 0.00251463 0)
(2.68494 0.00223115 0)
(2.68656 0.0019714 0)
(2.688 0.00175445 0)
(2.68948 0.00155099 0)
(2.69071 0.00138621 0)
(2.69209 0.0012267 0)
(2.6931 0.00110353 0)
(2.69445 0.000982699 0)
(2.6952 0.000897675 0)
(2.69662 0.000818864 0)
(2.69704 0.00077381 0)
(2.69866 0.000747346 0)
(2.70666 0.00360702 0)
(2.70849 0.00311318 0)
(2.71036 0.00266032 0)
(2.71211 0.00225625 0)
(2.71365 0.00191125 0)
(2.715 0.00161433 0)
(2.71618 0.00136388 0)
(2.71726 0.00114331 0)
(2.71825 0.000955799 0)
(2.71917 0.000788066 0)
(2.72 0.000647719 0)
(2.72081 0.000522097 0)
(2.72148 0.000418897 0)
(2.7222 0.000327257 0)
(2.72273 0.000252584 0)
(2.72341 0.000191705 0)
(2.72379 0.000141788 0)
(2.72448 0.000114821 0)
(2.72468 8.92e-05 0)
(2.72547 0.000104427 0)
(2.73366 0.00190543 0)
(2.73489 0.00157499 0)
(2.73618 0.00128521 0)
(2.73736 0.00103813 0)
(2.73836 0.000833781 0)
(2.73915 0.000662053 0)
(2.73981 0.000518885 0)
(2.74035 0.000394573 0)
(2.74083 0.000289143 0)
(2.74123 0.000196803 0)
(2.74159 0.000119455 0)
(2.74189 5.31518e-05 0)
(2.74214 -2.10529e-06 0)
(2.74236 -4.64635e-05 0)
(2.74252 -8.46503e-05 0)
(2.74268 -0.000109326 0)
(2.74277 -0.000134101 0)
(2.74292 -0.000136961 0)
(2.74295 -0.000149206 0)
(2.74311 -0.000124652 0)
(2.74747 0.000770584 0)
(2.74838 0.000610782 0)
(2.74937 0.000477982 0)
(2.75025 0.000370669 0)
(2.75095 0.000285248 0)
(2.75144 0.000215713 0)
(2.75181 0.000158885 0)
(2.75205 0.0001107 0)
(2.75225 7.03432e-05 0)
(2.75237 3.58657e-05 0)
(2.75247 7.20679e-06 0)
(2.75249 -1.65787e-05 0)
(2.75251 -3.64533e-05 0)
(2.75245 -5.12333e-05 0)
(2.75241 -6.41456e-05 0)
(2.7523 -7.14657e-05 0)
(2.75223 -7.96224e-05 0)
(2.75208 -7.91138e-05 0)
(2.75202 -8.30731e-05 0)
(2.75183 -7.28455e-05 0)
(1.79049 0.142757 2.40754e-21)
(1.80113 0.131549 0)
(1.80254 0.120203 -4.58158e-22)
(1.7964 0.109057 -1.39201e-20)
(1.78091 0.0983899 2.43985e-20)
(1.76094 0.0891878 0)
(1.72951 0.0798258 2.14718e-20)
(1.6872 0.0751927 0)
(1.64518 0.0630142 2.02882e-20)
(1.46194 0.0543603 -3.04837e-22)
(1.84154 0.131373 -2.67382e-21)
(1.85067 0.122192 5.49511e-22)
(1.85115 0.112616 -5.50616e-22)
(1.84404 0.104417 -9.80098e-22)
(1.83032 0.0952652 -1.32125e-20)
(1.80694 0.0896447 -8.14016e-22)
(1.79043 0.081206 0)
(1.73348 0.0786845 -2.18167e-20)
(1.74461 0.0735362 0)
(1.59197 0.0618154 -1.90319e-20)
(1.89868 0.11998 5.47836e-21)
(1.90497 0.112485 0)
(1.90643 0.103831 -5.24431e-22)
(1.8948 0.0976379 -3.95828e-22)
(1.88701 0.0896649 1.40437e-20)
(1.85328 0.0856839 0)
(1.85257 0.0799204 2.43908e-20)
(1.78156 0.0757215 2.2446e-20)
(1.80581 0.0755657 0)
(1.69123 0.0660779 1.88362e-20)
(1.95967 0.109633 -2.46602e-21)
(1.96235 0.10331 1.01433e-20)
(1.96715 0.0958051 0)
(1.94963 0.0904853 1.64238e-20)
(1.9489 0.0842357 9.151e-22)
(1.90626 0.0796715 -1.75471e-21)
(1.91224 0.0765872 -2.3452e-20)
(1.84021 0.0706869 -7.71852e-22)
(1.85508 0.0715966 -2.29298e-20)
(1.76817 0.0669171 0)
(2.02239 0.1002 0)
(2.02195 0.0945437 -9.8906e-21)
(2.03025 0.088567 -1.11463e-20)
(2.00907 0.0833417 1.63913e-21)
(2.01233 0.078982 -1.05835e-21)
(1.96781 0.0736269 -8.84218e-22)
(1.97146 0.0719251 -2.61888e-20)
(1.9071 0.0666237 -1.56484e-21)
(1.90978 0.066336 -3.21125e-22)
(1.83563 0.065215 2.16796e-20)
(2.08499 0.0913316 3.08434e-21)
(2.08312 0.0860902 6.64149e-22)
(2.09323 0.081538 -1.60669e-21)
(2.07215 0.0764131 6.04958e-22)
(2.07576 0.073313 -1.72502e-20)
(2.03511 0.0682885 0)
(2.03395 0.0666483 2.86752e-20)
(1.97766 0.0632453 -8.49788e-22)
(1.97372 0.0613741 4.83579e-20)
(1.90278 0.0617665 -4.39579e-20)
(2.14613 0.0827305 -3.09952e-21)
(2.14458 0.0779836 -5.79921e-21)
(2.15493 0.0743707 1.03417e-20)
(2.13652 0.0698169 -1.83183e-20)
(2.13927 0.0671715 -1.76906e-21)
(2.10408 0.0633349 -1.63485e-20)
(2.1005 0.0611524 8.84847e-22)
(2.04935 0.059345 -1.69579e-21)
(2.04427 0.0565091 -2.3706e-20)
(1.97395 0.0573089 2.22723e-20)
(2.20508 0.074207 0)
(2.20471 0.0701493 1.24883e-20)
(2.21494 0.0670252 -1.3551e-21)
(2.19975 0.0633921 1.01257e-20)
(2.20256 0.0607832 -5.65117e-22)
(2.17191 0.0581866 3.22584e-20)
(2.16915 0.0555743 -1.46012e-20)
(2.12133 0.0546345 0)
(2.11812 0.0516171 0)
(2.04973 0.0524862 0)
(2.26158 0.0657176 0)
(2.26237 0.0624252 -1.13538e-20)
(2.27289 0.0595907 -7.24547e-22)
(2.26036 0.0568794 1.00745e-20)
(2.26455 0.0543085 1.85173e-20)
(2.23733 0.0525948 -1.79457e-20)
(2.23724 0.0499655 1.754e-20)
(2.1929 0.0494613 -9.42675e-22)
(2.19253 0.0467193 0)
(2.12845 0.0475854 1.23979e-20)
(2.31575 0.0572895 4.02749e-22)
(2.31734 0.0546825 6.46795e-21)
(2.32853 0.0521372 1.00842e-20)
(2.31798 0.0501425 -5.80143e-22)
(2.32408 0.0477842 1.254e-21)
(2.29991 0.0466212 -1.89788e-20)
(2.30276 0.0442946 1.85488e-20)
(2.26288 0.0440631 -9.6903e-22)
(2.26512 0.0417015 0)
(2.20756 0.0425801 -2.50014e-20)
(2.36826 0.0489943 0)
(2.37035 0.0469215 6.34855e-21)
(2.38207 0.0447184 1.9429e-22)
(2.37315 0.0432189 0)
(2.38077 0.0412019 0)
(2.35973 0.0403948 1.68139e-20)
(2.36475 0.0384645 -1.53938e-20)
(2.33016 0.038443 -9.22474e-22)
(2.3342 0.036415 4.87211e-22)
(2.28462 0.037363 1.3018e-20)
(2.42031 0.0409187 0)
(2.4227 0.0392614 -1.20616e-20)
(2.43439 0.0374267 -1.3284e-20)
(2.42698 0.0362711 2.03316e-21)
(2.4352 0.0346094 -1.30963e-21)
(2.41737 0.0340504 -1.11941e-21)
(2.42336 0.0324555 2.13253e-21)
(2.39432 0.0326029 1.38291e-20)
(2.39921 0.0308455 1.36079e-21)
(2.35797 0.0318895 -4.24764e-22)
(2.47318 0.0331683 0)
(2.4757 0.0318751 6.48822e-21)
(2.48664 0.0303998 -7.29531e-22)
(2.48063 0.0295067 7.23507e-22)
(2.4885 0.0281413 0)
(2.47376 0.0277593 0)
(2.47965 0.0264025 0)
(2.45583 0.0266631 -1.57127e-20)
(2.46076 0.0251301 1.47554e-20)
(2.42721 0.026209 0)
(2.52714 0.0260752 0)
(2.5296 0.0250874 4.1234e-21)
(2.53918 0.0239167 5.37475e-21)
(2.53445 0.023218 7.0719e-21)
(2.54135 0.0220721 -1.35377e-21)
(2.52945 0.0217894 8.51213e-21)
(2.53464 0.0206014 -7.75297e-21)
(2.51545 0.0208729 0)
(2.51992 0.0195366 7.31162e-22)
(2.49298 0.0205003 -1.40643e-20)
(2.58017 0.020014 -9.02655e-22)
(2.58246 0.0192436 -3.3391e-21)
(2.59046 0.0183072 -6.94616e-21)
(2.58698 0.0177266 -4.97346e-21)
(2.59276 0.0167518 0)
(2.58356 0.0164778 -1.0849e-20)
(2.58793 0.0154373 1.11107e-20)
(2.57294 0.015589 -1.05775e-21)
(2.57679 0.0144442 -7.29349e-21)
(2.55574 0.0151214 2.03754e-20)
(2.62827 0.0150554 9.07288e-22)
(2.63055 0.0144334 -2.57912e-21)
(2.6371 0.013693 2.34431e-21)
(2.63502 0.0131769 -5.84228e-21)
(2.63983 0.0123719 0)
(2.63339 0.0120478 0)
(2.63706 0.0111746 1.09298e-21)
(2.62623 0.0111291 -1.03676e-20)
(2.62943 0.0101867 -6.50912e-21)
(2.61411 0.0104974 -6.81023e-21)
(2.66779 0.0109688 0)
(2.6704 0.0104733 4.24495e-21)
(2.67583 0.00992353 -1.57441e-21)
(2.6753 0.00946825 5.19519e-21)
(2.67936 0.00885277 1.40057e-21)
(2.67571 0.00848839 -1.20448e-21)
(2.6788 0.00780708 2.27937e-21)
(2.67206 0.00759148 7.18884e-21)
(2.67462 0.00685648 0)
(2.66487 0.00686 0)
(2.69777 0.00740089 0)
(2.70082 0.00706769 1.72947e-21)
(2.70539 0.00672612 -3.20119e-21)
(2.70629 0.00638053 0)
(2.70972 0.00597071 -2.73802e-21)
(2.70853 0.00563342 -1.21368e-21)
(2.71107 0.00515134 -3.41208e-21)
(2.70792 0.00486111 -1.01135e-21)
(2.70987 0.00432262 5.21158e-22)
(2.70492 0.00414508 4.45911e-22)
(2.71894 0.0041551 0)
(2.72219 0.00403767 -1.73775e-21)
(2.72601 0.00392803 -1.59161e-21)
(2.72785 0.00376837 2.21884e-21)
(2.73069 0.00358202 1.3223e-21)
(2.73122 0.00337006 1.26101e-21)
(2.73326 0.00309548 5.69891e-21)
(2.73264 0.0028518 -4.19081e-21)
(2.73407 0.00250049 9.8066e-22)
(2.73254 0.00227361 0)
(2.73056 0.00116327 0)
(2.73376 0.00124203 8.5346e-22)
(2.73705 0.00132229 -8.19542e-22)
(2.73928 0.0013653 7.79445e-22)
(2.74173 0.00138575 0)
(2.74308 0.00136554 -1.26727e-21)
(2.74478 0.00130877 1.12131e-21)
(2.74542 0.0012242 1.0116e-21)
(2.74652 0.00109003 0)
(2.74671 0.000955576 0)
(1.14696 0.244802 0)
(1.08966 0.266816 -5.91304e-20)
(1.04399 0.296578 0)
(1.00679 0.335024 -1.96352e-19)
(0.974135 0.381687 7.39736e-20)
(0.943782 0.438306 2.17425e-21)
(0.912668 0.505303 6.6339e-20)
(0.862631 0.570908 -7.10827e-21)
(0.73334 0.578753 0)
(0.407304 0.353731 6.98004e-20)
(1.2347 0.24796 1.0838e-19)
(1.17912 0.276106 5.91289e-20)
(1.13398 0.304627 -5.68959e-20)
(1.0963 0.341827 6.60482e-20)
(1.06424 0.388335 -5.78822e-20)
(1.03674 0.444836 7.27954e-21)
(1.01005 0.511124 -6.80744e-20)
(0.962952 0.574443 -1.36338e-19)
(0.825674 0.577743 -3.62432e-20)
(0.458455 0.346838 -1.02451e-19)
(1.31726 0.24717 -4.87051e-20)
(1.26633 0.277472 5.05606e-20)
(1.22285 0.305359 5.6894e-20)
(1.18472 0.341657 5.85462e-20)
(1.15297 0.387549 6.00576e-20)
(1.12796 0.44304 6.1155e-20)
(1.10509 0.507213 8.64662e-21)
(1.05956 0.566037 6.01979e-20)
(0.912108 0.562759 2.44241e-20)
(0.502745 0.329425 -2.60723e-20)
(1.39725 0.243778 9.72698e-20)
(1.3497 0.27441 -5.05583e-20)
(1.30767 0.301368 0)
(1.26962 0.336197 0)
(1.23845 0.380382 0)
(1.21565 0.433569 4.75581e-20)
(1.19558 0.494034 -4.22577e-20)
(1.14944 0.546014 0)
(0.98877 0.534142 1.84036e-20)
(0.536728 0.302049 -3.78271e-20)
(1.47258 0.237479 -1.88695e-20)
(1.42701 0.267156 6.71012e-20)
(1.38614 0.292973 0)
(1.34877 0.325946 0)
(1.31866 0.367509 2.01625e-20)
(1.2978 0.417176 1.94121e-20)
(1.27922 0.472402 2.62258e-20)
(1.22959 0.5152 1.5421e-20)
(1.05148 0.492943 2.4471e-20)
(0.557215 0.266311 -4.25728e-21)
(1.54057 0.228671 5.5627e-20)