/*--------------------------------*- C++ -*----------------------------------*\
| =========                 |                                                 |
| \\      /  F ield         | OpenFOAM: The Open Source CFD Toolbox           |
|  \\    /   O peration     | Version:  4.1                                   |
|   \\  /    A nd           | Web:      www.OpenFOAM.org                      |
|    \\/     M anipulation  |                                                 |
\*---------------------------------------------------------------------------*/
FoamFile
{
    version     2.0;
    format      ascii;
    class       volVectorField;
    location    "15";
    object      U;
}
// * * * * * * * * * * * * * * * * * * * * * * * * * * * * * * * * * * * * * //

dimensions      [0 1 -1 0 0 0 0];

internalField   nonuniform List<vector> 
3800
(
(-0.0416197 0.0308662 2.71129e-19)
(-0.0714555 0.0540854 0)
(-0.0558519 0.0569382 4.81041e-19)
(0.00853198 0.051966 2.22518e-19)
(0.12809 0.0473932 -4.18469e-19)
(0.300705 0.0469248 -5.85859e-19)
(0.515722 0.0602639 1.85115e-19)
(0.708586 0.0664192 0)
(0.981343 0.0994435 -1.63774e-19)
(1.08841 0.104915 0)
(-0.0495062 0.0309104 -1.35154e-19)
(-0.0701851 0.0462445 1.29472e-19)
(-0.0219827 0.0425992 -4.87739e-19)
(0.104907 0.037714 -6.76393e-19)
(0.310201 0.0423361 -1.09276e-21)
(0.566893 0.0581086 1.94695e-19)
(0.822037 0.0839524 -1.83286e-19)
(1.06438 0.10584 -1.70938e-19)
(1.26649 0.140408 1.63667e-19)
(1.36688 0.139772 3.10102e-19)
(-0.0558325 0.0299814 1.37993e-19)
(-0.0553011 0.0371324 -1.33262e-19)
(0.0510956 0.0303721 2.4386e-19)
(0.273835 0.0355151 -2.27035e-21)
(0.573554 0.0597095 2.09949e-19)
(0.877692 0.0941927 1.95571e-19)
(1.13635 0.129355 1.82548e-19)
(1.33667 0.157313 1.70852e-19)
(1.44893 0.177466 1.56086e-19)
(1.54503 0.181162 -1.47035e-19)
(-0.0585201 0.0267774 -7.42377e-22)
(-0.0189288 0.0247913 -1.3589e-19)
(0.181131 0.0242014 0)
(0.517571 0.0540997 2.24525e-19)
(0.873789 0.101097 -2.13462e-19)
(1.16444 0.145711 0)
(1.36657 0.179641 0)
(1.47827 0.195768 0)
(1.54127 0.205688 -1.561e-19)
(1.55804 0.200104 2.91933e-19)
(-0.055402 0.0207147 2.92309e-19)
(0.0508277 0.0103162 7.37861e-22)
(0.382164 0.035296 1.27983e-19)
(0.800034 0.0967479 1.13858e-19)
(1.14202 0.15571 1.05966e-19)
(1.36509 0.196409 9.60574e-20)
(1.48253 0.216286 0)
(1.53749 0.22191 7.96224e-20)
(1.5498 0.221589 -3.66822e-19)
(1.54711 0.209649 4.89864e-19)
(-0.0431354 0.011431 -4.47442e-19)
(0.170174 0.0025791 3.63242e-21)
(0.634533 0.0726354 -2.55311e-19)
(1.0585 0.153952 2.35995e-19)
(1.33186 0.20873 -3.1317e-19)
(1.47286 0.235501 9.93511e-20)
(1.53323 0.243524 0)
(1.54812 0.24167 -7.96484e-20)
(1.54518 0.23444 7.30561e-20)
(1.54124 0.224269 2.58347e-19)
(-0.0153085 0.000319282 0)
(0.350584 0.019103 0)
(0.883949 0.130246 -1.29471e-19)
(1.25309 0.212588 1.21281e-19)
(1.44578 0.253918 -1.02403e-19)
(1.52605 0.268002 9.65849e-20)
(1.54679 0.267275 1.63552e-19)
(1.54345 0.259692 -1.55119e-19)
(1.53232 0.248958 -1.34467e-19)
(1.516 0.237687 6.37676e-20)
(0.0371065 -0.00818073 8.40556e-20)
(0.569704 0.0681324 0)
(1.0914 0.196286 -6.29381e-20)
(1.38397 0.267461 2.37431e-19)
(1.5086 0.294342 -1.59238e-19)
(1.54383 0.297397 0)
(1.54222 0.289689 0)
(1.52812 0.277902 0)
(1.51083 0.263725 -1.2705e-19)
(1.4972 0.25291 1.21135e-19)
(0.118748 -0.00488633 -4.22099e-20)
(0.779449 0.13929 -4.9256e-22)
(1.24803 0.264899 -6.80435e-20)
(1.46484 0.319174 2.92106e-20)
(1.53493 0.331585 2.7566e-20)
(1.54173 0.325512 4.60317e-20)
(1.52715 0.312541 0)
(1.50801 0.296899 -1.65295e-20)
(1.49045 0.281097 -7.4055e-20)
(1.47306 0.269579 5.65758e-20)
(0.226856 0.0173894 0)
(0.953492 0.218828 -3.98738e-20)
(1.35663 0.333246 0)
(1.5072 0.368333 -1.54513e-20)
(1.53832 0.367458 -1.4495e-20)
(1.52715 0.353809 -2.21005e-20)
(1.50596 0.336056 0)
(1.48467 0.317228 1.65361e-20)
(1.46471 0.299575 1.47007e-20)
(1.44771 0.285852 1.22692e-20)
(-0.0104451 0.00953228 0)
(-0.0393481 0.0166475 -3.13452e-20)
(-0.0783829 0.018609 0)
(-0.115365 0.0188832 -4.15864e-20)
(-0.148943 0.0187832 -1.31966e-20)
(-0.179923 0.0187312 2.5084e-20)
(-0.208814 0.0188267 -2.37014e-20)
(-0.236127 0.0190859 2.28872e-20)
(-0.262435 0.0195419 -1.42364e-22)
(-0.288038 0.020215 2.17716e-20)
(-0.0116847 0.0272547 -9.563e-20)
(-0.0393663 0.0481741 6.15974e-20)
(-0.0751985 0.0542884 -5.81746e-20)
(-0.108632 0.0552573 2.73488e-20)
(-0.138464 0.0549478 1.30263e-19)
(-0.165384 0.0546972 -4.92681e-20)
(-0.189841 0.0548585 0)
(-0.212256 0.0555006 -2.27087e-20)
(-0.233173 0.0567153 -2.18737e-20)
(-0.253254 0.0585607 0)
(-0.0138678 0.0411545 6.37658e-20)
(-0.0394975 0.0746057 0)
(-0.0695529 0.0853938 1.75194e-19)
(-0.0965126 0.0874647 -2.20241e-19)
(-0.119465 0.086957 5.18706e-20)
(-0.13895 0.0862613 0)
(-0.155361 0.0861351 0)
(-0.168977 0.0867793 0)
(-0.180185 0.0883333 1.76547e-19)
(-0.190334 0.0908738 -1.72014e-19)
(-0.0164297 0.0496023 0)
(-0.0398704 0.093352 -1.25367e-19)
(-0.0627519 0.109235 2.34845e-19)
(-0.0813533 0.112953 -1.1034e-19)
(-0.0953198 0.112323 1.05249e-19)
(-0.105128 0.110849 -2.99612e-19)
(-0.111176 0.109873 -1.87883e-21)
(-0.113681 0.109875 1.81466e-19)
(-0.112606 0.111085 1.76391e-19)
(-0.109659 0.113545 -2.565e-19)
(-0.0188218 0.0522713 1.29879e-19)
(-0.0406732 0.10302 -2.52319e-19)
(-0.0564175 0.123828 -1.95812e-23)
(-0.0660823 0.129593 3.62174e-22)
(-0.0702061 0.128959 1.05787e-19)
(-0.0694145 0.126384 -2.98631e-19)
(-0.0642156 0.123866 0)
(-0.0550418 0.122271 -9.07772e-20)
(-0.0415974 0.122109 8.7027e-20)
(-0.0236901 0.124011 -3.42046e-19)
(-0.0207738 0.0500902 -4.92153e-22)
(-0.0422022 0.10373 2.53171e-19)
(-0.0521788 0.128186 1.18277e-19)
(-0.0536825 0.13581 1.11545e-19)
(-0.0483674 0.135174 1.05083e-19)
(-0.0373124 0.131281 9.97009e-20)
(-0.0212132 0.126668 0)
(-0.000764022 0.122609 9.07546e-20)
(0.0240316 0.119906 2.61171e-19)
(0.0585076 0.119195 -8.31571e-20)
(-0.0224857 0.0449211 9.25684e-23)
(-0.0449657 0.0971683 1.27459e-19)
(-0.0513838 0.122725 0)
(-0.0464809 0.131046 -2.22955e-19)
(-0.0329946 0.129994 2.09633e-19)
(-0.0125395 0.124654 0)
(0.014327 0.117927 0)
(0.0472213 0.111694 0)
(0.0817012 0.106036 -1.70885e-19)
(0.144443 0.100156 -3.3435e-19)
(-0.0246774 0.0389795 -1.32533e-19)
(-0.0496799 0.0861915 1.27995e-19)
(-0.0546641 0.109498 2.38375e-19)
(-0.0449337 0.116491 -1.57714e-22)
(-0.0237163 0.114161 2.087e-19)
(0.00765558 0.107343 1.96633e-19)
(0.0502669 0.0991829 1.86063e-19)
(0.10615 0.0934443 1.76832e-19)
(0.154806 0.0856408 1.70843e-19)
(0.282134 0.0789458 -1.62531e-19)
(-0.028333 0.0341712 -4.00101e-19)
(-0.0567896 0.073985 -1.27502e-19)
(-0.0607921 0.0918785 -4.76094e-19)
(-0.0449231 0.0954472 -2.22078e-19)
(-0.0110723 0.0910776 -4.12876e-22)
(0.041858 0.0832263 -1.96809e-19)
(0.11857 0.0755763 1.84349e-19)
(0.218515 0.0739 -1.76777e-19)
(0.302216 0.0674169 1.68009e-19)
(0.526631 0.0713903 -3.19997e-19)
(-0.0340907 0.0315348 2.67069e-19)
(-0.0652209 0.0629892 0)
(-0.0645638 0.0735224 2.38929e-19)
(-0.0339406 0.0724979 5.31921e-22)
(0.0288418 0.0664254 5.23592e-22)
(0.127464 0.0594568 1.94893e-19)
(0.267815 0.0584803 -5.54305e-19)
(0.418581 0.0602633 0)
(0.590666 0.0672717 -1.67887e-19)
(0.839463 0.0852781 0)
(-0.32161 0.0212458 0)
(-0.364775 0.0198366 0)
(-0.404562 0.0194948 0)
(-0.444046 0.0187564 8.78985e-22)
(-0.481551 0.0181655 0)
(-0.518003 0.0174368 0)
(-0.552689 0.0166858 -1.56574e-20)
(-0.585875 0.0158504 -4.49269e-22)
(-0.617206 0.0149693 5.83096e-22)
(-0.646754 0.014034 -4.25221e-22)
(-0.674332 0.0130645 1.70485e-20)
(-0.699965 0.0120659 1.10512e-21)
(-0.723562 0.0110503 1.12919e-21)
(-0.745144 0.0100225 0)
(-0.764673 0.00898667 0)
(-0.782175 0.00794149 0)
(-0.797649 0.00688583 -1.93027e-20)
(-0.811135 0.0058196 1.93254e-20)
(-0.822648 0.00475282 0)
(-0.832109 0.00370701 0)
(-0.839304 0.0026255 0)
(-0.844056 0.00149765 1.95593e-20)
(-0.846181 0.000306386 -1.95825e-20)
(-0.845585 -0.0010891 -2.04128e-20)
(-0.842179 -0.00259853 1.80289e-20)
(-0.83559 -0.00425217 1.17469e-21)
(-0.825515 -0.0060468 1.80438e-20)
(-0.811624 -0.00798013 -1.80653e-20)
(-0.793599 -0.0100422 1.67866e-20)
(-0.771166 -0.012208 -1.68066e-20)
(-0.744104 -0.0144416 0)
(-0.712283 -0.0166921 -1.41494e-20)
(-0.675698 -0.0188893 1.41664e-20)
(-0.634439 -0.0209854 -1.1983e-20)
(-0.588754 -0.0228951 1.19974e-20)
(-0.53904 -0.0245545 0)
(-0.485802 -0.0259186 -8.47737e-21)
(-0.429644 -0.0269753 8.4876e-21)
(-0.371237 -0.0276451 0)
(-0.311372 -0.0279653 0)
(-0.250691 -0.0280064 0)
(-0.189962 -0.0276619 0)
(-0.129817 -0.0270827 -1.91347e-22)
(-0.0706576 -0.0263777 1.46793e-22)
(-0.0130385 -0.0253825 -1.0827e-22)
(0.0425975 -0.0242749 0)
(0.0960512 -0.023083 0)
(0.14708 -0.0218337 0)
(0.195532 -0.0205564 -4.00856e-24)
(0.241326 -0.0192777 -9.84289e-23)
(0.284438 -0.0180199 1.02568e-22)
(0.324889 -0.016801 0)
(0.362739 -0.0156357 0)
(0.398076 -0.0145336 0)
(0.431002 -0.0134987 0)
(0.461645 -0.0125301 3.04654e-22)
(0.49013 -0.0116278 -3.05029e-22)
(0.51661 -0.01079 0)
(0.541202 -0.0100166 0)
(0.564076 -0.00930342 0)
(0.585321 -0.00864928 -1.26731e-22)
(0.605128 -0.00804818 1.26888e-22)
(0.623529 -0.00749981 0)
(0.640764 -0.00699634 -1.0236e-22)
(0.656763 -0.00653962 1.96844e-22)
(0.671869 -0.00611929 -7.8752e-24)
(0.685836 -0.005741 -8.67065e-23)
(0.699212 -0.00539025 0)
(0.711437 -0.0050789 0)
(0.723453 -0.0047855 0)
(0.734138 -0.00453185 2.63262e-23)
(0.745168 -0.00428488 -2.98012e-24)
(0.754401 -0.00408226 -2.34083e-23)
(0.764867 -0.00387186 -1.7794e-23)
(0.772582 -0.00371644 1.78163e-23)
(0.78304 -0.00353327 -6.20206e-24)
(0.788922 -0.00342428 6.20987e-24)
(0.8002 -0.00325869 -1.72073e-24)
(0.803539 -0.00319878 1.22855e-24)
(0.817013 -0.00304094 4.52642e-25)
(-0.279661 0.0613399 5.08202e-20)
(-0.319822 0.0574313 -5.38832e-20)
(-0.354939 0.0563094 -1.70406e-21)
(-0.390453 0.0543154 -2.63432e-21)
(-0.424106 0.0525914 -1.8121e-21)
(-0.456861 0.0505098 -1.86956e-21)
(-0.488024 0.048312 -6.45137e-20)
(-0.517777 0.0458767 6.06656e-20)
(-0.545813 0.0432881 -3.06712e-21)
(-0.572149 0.0405419 -2.10248e-21)
(-0.596629 0.0376882 -7.19203e-20)
(-0.61925 0.0347502 6.87356e-20)
(-0.639937 0.0317622 -1.12665e-21)
(-0.658696 0.028743 0)
(-0.675503 0.0257057 0)
(-0.690373 0.0226494 0)
(-0.703308 0.0195675 0)
(-0.714333 0.0164538 0)
(-0.72345 0.0133205 7.82628e-20)
(-0.730619 0.0101957 -7.83481e-20)
(-0.735662 0.00699561 -7.60437e-20)
(-0.738384 0.00362827 3.45915e-22)
(-0.738824 9.8414e-05 7.83306e-20)
(-0.736665 -0.00391696 8.05114e-20)
(-0.731808 -0.00830722 -3.79058e-20)
(-0.723962 -0.0131042 -3.90765e-20)
(-0.712838 -0.0183258 3.61818e-20)
(-0.698129 -0.0239636 -7.12704e-20)
(-0.679531 -0.0299879 6.87982e-20)
(-0.656782 -0.0363243 -3.37479e-20)
(-0.629668 -0.0428604 0)
(-0.59805 -0.0494547 3.03482e-20)
(-0.561978 -0.0559023 -2.85188e-20)
(-0.521491 -0.0620743 0)
(-0.476845 -0.0677005 0)
(-0.428435 -0.0725838 -1.81903e-20)
(-0.376756 -0.0765854 2.37503e-21)
(-0.322409 -0.0798072 1.81802e-20)
(-0.266045 -0.0817173 8.72146e-22)
(-0.208559 -0.0826542 7.37664e-22)
(-0.150269 -0.0828606 0)
(-0.0921239 -0.0817465 4.98231e-22)
(-0.0348736 -0.079963 5.8634e-22)
(0.0213896 -0.0775643 4.28674e-21)
(0.0761272 -0.0746979 -1.03793e-21)
(0.128697 -0.0714338 -2.82778e-21)
(0.179052 -0.0678907 1.33293e-21)
(0.22699 -0.0641748 -1.1677e-21)
(0.272377 -0.0603787 0)
(0.315149 -0.0565817 0)
(0.355297 -0.0528496 -2.70395e-23)
(0.392856 -0.0492335 0)
(0.427894 -0.0457739 -5.52605e-23)
(0.460509 -0.042498 -6.13885e-22)
(0.490815 -0.0394236 4.83387e-22)
(0.518943 -0.0365526 7.03099e-23)
(0.545016 -0.0338849 5.10593e-22)
(0.569185 -0.0314122 -8.44444e-23)
(0.591569 -0.0291324 -6.35707e-22)
(0.612334 -0.0270324 -5.20408e-22)
(0.631567 -0.0251092 9.50777e-22)
(0.649455 -0.023344 -5.49999e-22)
(0.66603 -0.0217363 -4.83368e-22)
(0.681522 -0.0202616 3.20133e-23)
(0.695866 -0.0189264 3.51419e-22)
(0.709388 -0.0176982 -4.29207e-23)
(0.721857 -0.0165955 0)
(0.733792 -0.0155728 -1.75893e-22)
(0.744664 -0.0146683 -1.92615e-23)
(0.755361 -0.0138143 1.26989e-22)
(0.764831 -0.0130804 1.02345e-22)
(0.77464 -0.0123624 -1.2609e-22)
(0.782796 -0.0117794 -2.0848e-23)
(0.792109 -0.011168 1.63241e-23)
(0.798898 -0.0107248 -1.9021e-23)
(0.80822 -0.0101923 -1.31132e-23)
(0.813375 -0.00988614 -1.01127e-24)
(0.823445 -0.00940597 -1.07333e-23)
(0.826354 -0.009242 -4.7618e-24)
(0.83838 -0.00879197 -3.87483e-24)
(-0.204972 0.0946693 1.6297e-21)
(-0.238352 0.0892998 1.67168e-21)
(-0.265563 0.0872979 1.13548e-19)
(-0.293824 0.0846188 -1.10157e-19)
(-0.320874 0.0819947 -1.17103e-19)
(-0.347252 0.0788609 1.22818e-19)
(-0.372458 0.0754278 3.89266e-21)
(-0.396474 0.071609 4.01159e-21)
(-0.419074 0.0674949 -7.35561e-25)
(-0.440191 0.0631147 2.1215e-21)
(-0.459696 0.0585381 1.4318e-19)
(-0.477545 0.0538185 -1.41135e-19)
(-0.493673 0.0490135 7.3602e-20)
(-0.508068 0.0441642 1.27816e-21)
(-0.520709 0.0392984 -1.5116e-19)
(-0.531605 0.034423 7.62125e-20)
(-0.540758 0.0295271 0)
(-0.548174 0.0245881 0)
(-0.553836 0.0195864 -7.91439e-20)
(-0.557734 0.0145154 7.92185e-20)
(-0.559735 0.00938105 7.69557e-20)
(-0.559622 0.00392907 -2.98579e-22)
(-0.557716 -0.00181449 -7.92866e-20)
(-0.553467 -0.00812176 7.54912e-20)
(-0.546781 -0.0150474 -7.80084e-20)
(-0.537422 -0.0226165 7.53944e-20)
(-0.525139 -0.0308765 -7.54656e-20)
(-0.509646 -0.0398317 0)
(-0.490653 -0.0494371 7.09448e-20)
(-0.467901 -0.0595721 -6.88005e-20)
(-0.441192 -0.0700414 6.0193e-20)
(-0.410335 -0.080666 -1.22503e-19)
(-0.375539 -0.0910768 5.84133e-20)
(-0.336739 -0.101088 4.96863e-20)
(-0.294222 -0.110258 -4.97338e-20)
(-0.248403 -0.118244 -1.31668e-21)
(-0.199812 -0.124718 0)
(-0.148477 -0.130459 -1.01897e-21)
(-0.0954583 -0.133171 2.45146e-20)
(-0.0422372 -0.134518 -4.97257e-21)
(0.0117783 -0.134135 -2.21155e-20)
(0.065971 -0.132382 -1.57232e-20)
(0.118802 -0.129469 1.43124e-20)
(0.170252 -0.125389 8.2128e-21)
(0.22005 -0.120662 -9.10833e-21)
(0.267773 -0.115275 -1.62125e-22)
(0.313242 -0.109427 -1.06438e-22)
(0.356312 -0.103302 -1.37641e-22)
(0.396891 -0.0970571 -2.39374e-22)
(0.434942 -0.0908221 2.3111e-22)
(0.470479 -0.0847032 2.71178e-23)
(0.503554 -0.0787812 7.27142e-22)
(0.534246 -0.0731184 -6.27141e-22)
(0.562663 -0.067755 6.33168e-23)
(0.588923 -0.0627216 6.81187e-23)
(0.613165 -0.0580287 -1.15752e-21)
(0.635515 -0.0536812 2.24576e-21)
(0.656118 -0.049664 -1.01791e-21)
(0.675091 -0.0459701 1.09837e-21)
(0.692591 -0.0425751 -1.03155e-21)
(0.708707 -0.0394735 6.17204e-23)
(0.723612 -0.0366329 5.80997e-23)
(0.737342 -0.0340527 5.43131e-23)
(0.750109 -0.0316909 -3.7883e-22)
(0.76186 -0.0295587 7.75541e-22)
(0.77289 -0.0276008 -3.07068e-22)
(0.782998 -0.0258489 3.69669e-23)
(0.792644 -0.0242262 -2.31663e-22)
(0.801371 -0.0227968 3.00419e-22)
(0.809955 -0.0214482 2.77598e-23)
(0.817487 -0.0202952 1.95719e-22)
(0.82532 -0.019167 -1.50022e-22)
(0.831752 -0.0182573 9.72017e-23)
(0.839175 -0.0173018 -5.82078e-23)
(0.844484 -0.0166156 -1.55743e-23)
(0.851919 -0.0157899 2.48315e-24)
(0.855913 -0.0153207 3.33928e-23)
(0.86396 -0.0145857 1.65014e-24)
(0.866188 -0.014338 6.30831e-24)
(0.875789 -0.013667 2.12817e-24)
(-0.111648 0.117491 1.64538e-21)
(-0.133962 0.112401 1.11781e-19)
(-0.151512 0.110076 3.17855e-21)
(-0.170275 0.107476 -2.3206e-19)
(-0.189109 0.104742 2.35589e-19)
(-0.207677 0.100937 -1.22515e-19)
(-0.225736 0.0966797 -1.9741e-21)
(-0.243034 0.0918447 -1.36074e-19)
(-0.25939 0.0865423 2.69996e-19)
(-0.274662 0.0808397 -1.38043e-19)
(-0.288713 0.074826 1.40765e-19)
(-0.301451 0.0685892 -1.43072e-19)
(-0.312798 0.0622147 -1.46984e-19)
(-0.322711 0.0557696 3.01444e-19)
(-0.331156 0.0493034 -1.49755e-19)
(-0.338123 0.042843 0)
(-0.343606 0.0363876 0)
(-0.3476 0.0299096 1.59705e-19)
(-0.350078 0.0233552 -1.57311e-19)
(-0.350966 0.0166598 0)
(-0.350215 0.00980817 0)
(-0.347633 0.00273915 0)
(-0.343627 -0.00499082 0)
(-0.337585 -0.0132773 2.50132e-21)
(-0.329412 -0.0223074 0)
(-0.318906 -0.0321915 -1.53834e-19)
(-0.305852 -0.0430166 3.60972e-21)
(-0.289992 -0.054817 6.73893e-21)
(-0.27105 -0.0675602 1.43911e-19)
(-0.248767 -0.0811178 1.3489e-19)
(-0.223061 -0.0952386 -1.32947e-19)
(-0.193478 -0.109797 -6.01837e-20)
(-0.160269 -0.123949 6.02268e-20)
(-0.123571 -0.137356 5.14857e-20)
(-0.083747 -0.149806 -5.1523e-20)
(-0.0412911 -0.160777 1.41105e-21)
(0.00242782 -0.169602 0)
(0.0498012 -0.175799 0)
(0.0994816 -0.179787 1.87332e-21)
(0.148086 -0.181743 0)
(0.196558 -0.18094 -1.87003e-20)
(0.244821 -0.178511 4.15381e-21)
(0.291992 -0.174494 3.22612e-21)
(0.337669 -0.168992 2.26551e-20)
(0.381587 -0.162374 -9.22481e-21)
(0.423468 -0.154893 0)
(0.463149 -0.146812 3.71033e-21)
(0.500528 -0.138375 -3.48576e-21)
(0.535555 -0.129793 1.03515e-21)
(0.568219 -0.121242 -1.0274e-21)
(0.598555 -0.112865 0)
(0.626627 -0.104768 -1.62019e-23)
(0.652524 -0.0970367 -4.54916e-23)
(0.676354 -0.0897215 0)
(0.698236 -0.0828608 0)
(0.7183 -0.0764678 -5.20022e-23)
(0.736673 -0.070553 0)
(0.753492 -0.0651004 5.48649e-23)
(0.768868 -0.0601007 9.2937e-22)
(0.782941 -0.0555179 -9.30078e-22)
(0.795797 -0.0513416 0)
(0.807588 -0.0475261 8.49428e-22)
(0.818358 -0.0440694 -8.01855e-22)
(0.828284 -0.0409136 -4.24456e-23)
(0.837339 -0.0380725 0)
(0.845766 -0.0354714 0)
(0.853415 -0.0331504 -7.05148e-23)
(0.86066 -0.0310081 0)
(0.867147 -0.0291256 0)
(0.873493 -0.0273577 1.75096e-22)
(0.878995 -0.0258484 -4.39947e-23)
(0.884711 -0.0243818 -2.04171e-22)
(0.889332 -0.0231977 1.23935e-22)
(0.8947 -0.0219693 -1.42008e-22)
(0.898454 -0.02108 3.85717e-23)
(0.903806 -0.0200348 -6.43655e-23)
(0.906587 -0.0194273 0)
(0.912371 -0.0185179 0)
(0.913896 -0.0181964 -7.42656e-24)
(0.920783 -0.0173916 2.90259e-24)
(-0.0141719 0.126899 2.0913e-19)
(-0.0220577 0.12467 1.70168e-21)
(-0.0285907 0.123414 1.15062e-19)
(-0.0364218 0.121752 -1.09648e-19)
(-0.045728 0.11932 1.88679e-21)
(-0.0560559 0.11569 -1.22327e-19)
(-0.0664454 0.111325 1.26245e-19)
(-0.0767581 0.106129 -1.31982e-19)
(-0.0867808 0.100234 1.3834e-19)
(-0.0963144 0.093745 2.18849e-21)
(-0.105174 0.0867719 2.24562e-21)
(-0.113209 0.0794365 0)
(-0.120304 0.0718553 2.33724e-21)
(-0.126374 0.0641303 -1.54599e-19)
(-0.131343 0.0563456 1.57092e-19)
(-0.135154 0.0485559 0)
(-0.137767 0.0407814 1.61092e-19)
(-0.139147 0.0330072 -1.61157e-19)
(-0.139249 0.0251796 -1.66122e-19)
(-0.137981 0.0172018 1.63641e-19)
(-0.135161 0.00890427 5.14287e-21)
(-0.130884 0.000311794 0)
(-0.125366 -0.00898572 0)
(-0.117881 -0.0188992 -2.53661e-21)
(-0.108501 -0.029683 5.05086e-21)
(-0.0970204 -0.04151 0)
(-0.0832307 -0.0545054 0)
(-0.0669143 -0.0687348 2.41577e-21)
(-0.0478505 -0.0841883 1.44838e-19)
(-0.0258162 -0.100765 -1.40422e-19)
(-0.00124098 -0.118219 0)
(0.0265453 -0.135577 4.05804e-21)
(0.0587463 -0.152572 0)
(0.0940108 -0.169038 3.53791e-21)
(0.131465 -0.184444 0)
(0.171001 -0.198171 -1.4256e-21)
(0.211524 -0.20921 0)
(0.253613 -0.215832 2.32966e-21)
(0.297019 -0.220963 -5.97407e-20)
(0.34014 -0.223259 6.05445e-20)
(0.38267 -0.22266 -6.92779e-22)
(0.424416 -0.219574 -1.59414e-20)
(0.464908 -0.214369 3.10336e-20)
(0.503814 -0.207376 -1.38605e-20)
(0.540934 -0.198988 -2.82799e-22)
(0.576101 -0.189558 -5.78581e-21)
(0.609212 -0.179414 6.12956e-21)
(0.640212 -0.168852 0)
(0.669092 -0.158133 1.77265e-22)
(0.695871 -0.147471 0)
(0.720604 -0.137041 0)
(0.743365 -0.126974 1.6291e-23)
(0.764249 -0.117372 0)
(0.783357 -0.108297 1.17942e-21)
(0.800805 -0.0997951 -1.17996e-21)
(0.816706 -0.0918791 5.22257e-23)
(0.831177 -0.0845595 0)
(0.844334 -0.0778176 -5.50674e-23)
(0.856284 -0.0716455 0)
(0.867138 -0.0659993 0)
(0.876977 -0.0608643 -8.18307e-22)
(0.88592 -0.0561826 6.86244e-22)
(0.894015 -0.0519491 -7.67848e-23)
(0.901399 -0.048093 5.83774e-22)
(0.908067 -0.044628 -1.25136e-21)
(0.914199 -0.0414649 5.07303e-22)
(0.919706 -0.0386475 -4.499e-22)
(0.924853 -0.0360574 4.83673e-22)
(0.929409 -0.0337839 0)
(0.933808 -0.0316616 0)
(0.937575 -0.0298482 2.27453e-23)
(0.941444 -0.0281039 1.09087e-22)
(0.944528 -0.0266879 -2.54171e-22)
(0.948087 -0.0252451 9.97382e-23)
(0.950533 -0.0241849 1.34103e-23)
(0.95403 -0.0229788 1.83646e-23)
(0.955801 -0.0222546 -3.81714e-23)
(0.95955 -0.0212313 0)
(0.9605 -0.0208467 -3.14026e-24)
(0.964947 -0.01997 -2.68352e-24)
(0.0763221 0.121704 0)
(0.0839516 0.124709 -3.51985e-21)
(0.0888555 0.126122 2.33962e-19)
(0.091944 0.1262 -2.37698e-19)
(0.0931816 0.125023 0)
(0.0923861 0.122805 2.52528e-19)
(0.0902136 0.119324 1.20569e-20)
(0.0871841 0.11466 -2.64516e-19)
(0.0836253 0.10902 -8.63491e-21)
(0.0797863 0.102519 -2.88263e-19)
(0.0759129 0.0952755 2.9281e-19)
(0.0722244 0.087437 -2.97991e-19)
(0.0688995 0.0791548 6.06962e-19)
(0.0660852 0.0705722 -3.09106e-19)
(0.0639134 0.0618159 -4.9715e-21)
(0.0625059 0.0529758 5.029e-21)
(0.0619725 0.0441011 0)
(0.0624206 0.0351985 0)
(0.0639497 0.0262158 -1.66877e-19)
(0.0666278 0.0170571 1.72105e-19)
(0.0707142 0.0075361 2.50689e-24)
(0.076204 -0.00255483 -1.67639e-19)
(0.0830012 -0.0131612 1.67641e-19)
(0.0916108 -0.0245191 0)
(0.102115 -0.0368618 -5.13881e-21)
(0.114697 -0.0504 0)
(0.129562 -0.0652938 5.00928e-21)
(0.146903 -0.0816271 -1.53909e-19)
(0.166879 -0.0993821 1.53952e-19)
(0.189672 -0.118481 -4.54264e-21)
(0.215114 -0.138781 0)
(0.242743 -0.158598 7.22132e-23)
(0.273487 -0.177915 -1.16649e-19)
(0.306852 -0.196978 5.44297e-21)
(0.341974 -0.214639 1.11565e-19)
(0.378319 -0.230078 -9.21246e-20)
(0.415202 -0.242578 9.21278e-20)
(0.452506 -0.251367 -7.21141e-20)
(0.489913 -0.256948 7.22202e-20)
(0.526634 -0.259179 1.01452e-22)
(0.562275 -0.258142 -1.59244e-21)
(0.596655 -0.254238 -1.24335e-21)
(0.629572 -0.247896 3.19168e-20)
(0.660846 -0.239524 -2.98973e-20)
(0.690367 -0.229554 0)
(0.718066 -0.218403 8.1392e-23)
(0.743915 -0.206454 0)
(0.767917 -0.194048 4.39824e-21)
(0.790108 -0.181485 -3.99517e-21)
(0.810539 -0.16901 0)
(0.829287 -0.156825 1.10921e-22)
(0.846434 -0.145078 0)
(0.862078 -0.133886 0)
(0.876314 -0.123319 -5.72577e-22)
(0.889247 -0.113428 5.46603e-22)
(0.900972 -0.104226 -1.04873e-21)
(0.911589 -0.0957235 2.18274e-21)
(0.921188 -0.0878958 5.55886e-24)
(0.92986 -0.0807332 -2.45573e-21)
(0.937686 -0.0741878 1.20904e-21)
(0.94474 -0.068242 8.43869e-23)
(0.951099 -0.0628291 6.1815e-23)
(0.956815 -0.0579399 7.69916e-23)
(0.961971 -0.0534941 7.25006e-23)
(0.966591 -0.0495028 1.38039e-23)
(0.970778 -0.0458676 6.29211e-23)
(0.974505 -0.0426314 0)
(0.977923 -0.0396666 -4.35256e-23)
(0.980924 -0.0370635 -3.41193e-22)
(0.983753 -0.0346476 6.14021e-22)
(0.986159 -0.0325785 -3.10267e-23)
(0.988561 -0.0306079 -2.7233e-22)
(0.990467 -0.0289975 0)
(0.992601 -0.0273853 -6.71084e-23)
(0.994064 -0.0261824 7.4876e-23)
(0.996101 -0.0248559 1.97442e-23)
(0.99713 -0.0240348 0)
(0.999277 -0.0229343 9.82186e-24)
(0.999815 -0.0224987 4.96826e-24)
(1.00235 -0.0215819 2.64857e-24)
(0.166007 0.104413 2.13731e-19)
(0.182461 0.112902 -2.28289e-19)
(0.194648 0.117712 2.31742e-19)
(0.206279 0.120219 2.45502e-19)
(0.216921 0.121836 -2.45397e-19)
(0.225355 0.122003 2.61129e-19)
(0.231719 0.120262 -5.34478e-19)
(0.236515 0.116879 5.46715e-19)
(0.239994 0.112172 -5.54342e-19)
(0.242348 0.106303 2.85589e-19)
(0.243845 0.0994215 -4.67037e-21)
(0.244764 0.0917123 -4.78559e-21)
(0.245353 0.0833545 0)
(0.245832 0.0745105 0)
(0.246411 0.065325 0)
(0.247294 0.0559094 -1.02835e-20)
(0.248674 0.0463353 0)
(0.25074 0.0366325 3.38813e-19)
(0.2537 0.0267478 -3.38653e-19)
(0.257654 0.0166229 -5.34921e-21)
(0.262904 0.00610068 -5.36458e-21)
(0.269579 -0.00519265 0)
(0.277737 -0.0170468 0)
(0.287719 -0.0297544 0)
(0.299691 -0.0435584 0)
(0.313823 -0.0586799 0)
(0.330298 -0.0752954 -5.11021e-21)
(0.34926 -0.0934901 -1.63275e-19)
(0.370766 -0.11322 1.58202e-19)
(0.394849 -0.134289 0)
(0.421276 -0.156387 0)
(0.449636 -0.178736 -4.26335e-21)
(0.480042 -0.20062 -8.08927e-21)
(0.511997 -0.221551 1.16178e-19)
(0.544726 -0.240709 -9.52587e-21)
(0.57763 -0.257297 -1.0977e-19)
(0.610144 -0.270545 8.65761e-20)
(0.641922 -0.279944 -8.90356e-20)
(0.672725 -0.285593 0)
(0.702212 -0.287545 -1.8913e-21)
(0.730159 -0.285986 5.07959e-20)
(0.756494 -0.281302 -4.91637e-20)
(0.781193 -0.273953 -3.54282e-20)
(0.804233 -0.264407 3.33688e-20)
(0.825619 -0.253135 0)
(0.845376 -0.240592 1.73318e-20)
(0.863551 -0.227197 -1.79096e-20)
(0.880208 -0.213327 -7.61994e-22)
(0.895426 -0.199306 -2.4784e-22)
(0.909286 -0.185404 5.57391e-21)
(0.921886 -0.171841 -5.6838e-21)
(0.933313 -0.15878 0)
(0.943664 -0.146347 -8.15798e-23)
(0.953022 -0.134618 2.38404e-24)
(0.96148 -0.123646 2.38188e-23)
(0.969107 -0.113445 3.9358e-23)
(0.975986 -0.104024 -5.01601e-23)
(0.982174 -0.0953551 7.63579e-22)
(0.987743 -0.0874242 -6.44814e-22)
(0.99274 -0.0801789 0)
(0.997227 -0.0735997 0)
(1.00124 -0.0676157 -6.20423e-23)
(1.00483 -0.0622137 0)
(1.00803 -0.0573077 -7.64569e-22)
(1.01088 -0.052905 9.27561e-23)
(1.01342 -0.0489016 7.2532e-22)
(1.01566 -0.0453374 0)
(1.01766 -0.0420806 1.11511e-23)
(1.01941 -0.0392183 -2.70646e-22)
(1.02099 -0.0365739 3.07021e-22)
(1.02234 -0.0343029 2.2329e-22)
(1.02361 -0.0321573 -1.93559e-22)
(1.02464 -0.0303931 1.08867e-22)
(1.0257 -0.0286516 -1.15216e-23)
(1.02645 -0.0273362 -5.70501e-23)
(1.0274 -0.0259202 5.34092e-23)
(1.02791 -0.0250238 -5.3389e-23)
(1.02888 -0.0238691 -1.74952e-23)
(1.02913 -0.0233954 0)
(1.03028 -0.0224535 2.10788e-24)
(0.293798 0.0863418 3.53517e-21)
(0.303073 0.097385 -2.41254e-19)
(0.310174 0.102398 -8.46648e-21)
(0.320884 0.105848 -5.3807e-21)
(0.333691 0.109833 -7.91125e-21)
(0.346048 0.112764 2.60412e-19)
(0.357456 0.113815 0)
(0.367979 0.113119 2.85355e-19)
(0.377427 0.110793 -2.87418e-19)
(0.385642 0.106884 0)
(0.392668 0.10153 3.07627e-19)
(0.39866 0.0949273 -6.22426e-19)
(0.403802 0.0872795 3.14789e-19)
(0.408311 0.0787756 0)
(0.412416 0.0695932 0)
(0.416382 0.0598832 5.28196e-21)
(0.420471 0.0497469 0)
(0.424924 0.0392636 3.4686e-19)
(0.43011 0.0284273 2.94785e-21)
(0.436102 0.0171771 -3.49065e-19)
(0.443226 0.00555321 3.51932e-19)
(0.451825 -0.00702106 -3.51556e-19)
(0.462072 -0.0202831 0)
(0.474147 -0.0345271 0)
(0.488268 -0.0499 0)
(0.504587 -0.0666209 0)
(0.523224 -0.0848718 0)
(0.544236 -0.104719 0)
(0.567553 -0.126098 0)
(0.593015 -0.148798 0)
(0.620299 -0.172442 -2.33744e-21)
(0.648879 -0.196278 -1.38171e-19)
(0.678313 -0.219553 1.42186e-19)
(0.70803 -0.241561 0)
(0.737338 -0.261506 1.1128e-19)
(0.765652 -0.278609 -2.09229e-19)
(0.792527 -0.292219 9.97129e-20)
(0.817711 -0.301892 1.37198e-21)
(0.841103 -0.307542 -1.21872e-21)
(0.862625 -0.309243 6.2179e-20)
(0.882253 -0.307242 -6.21208e-20)
(0.900061 -0.301945 -4.5478e-20)
(0.916176 -0.293825 4.54365e-20)
(0.930709 -0.283374 0)
(0.943769 -0.271089 -4.77778e-22)
(0.955463 -0.257451 2.15941e-20)
(0.965906 -0.242913 -2.15027e-20)
(0.975215 -0.227877 6.86497e-22)
(0.983509 -0.212696 -1.06482e-20)
(0.990897 -0.19766 1.8239e-20)
(0.997489 -0.183006 -7.83658e-21)
(1.00337 -0.168909 -9.66106e-23)
(1.00864 -0.155502 1.54502e-22)
(1.01335 -0.142865 -5.24757e-23)
(1.01759 -0.131054 0)
(1.02138 -0.12008 -2.50998e-22)
(1.0248 -0.109952 2.63682e-22)
(1.02786 -0.100637 -2.00273e-23)
(1.03061 -0.092119 1.46484e-24)
(1.03307 -0.0843405 2.73819e-24)
(1.03527 -0.0772783 -5.77617e-24)
(1.03721 -0.0708589 7.8917e-24)
(1.03895 -0.0650657 4.83291e-22)
(1.04047 -0.0598101 -4.8285e-22)
(1.04181 -0.0550954 -4.75484e-22)
(1.04296 -0.0508153 1.5912e-23)
(1.04398 -0.047005 4.5872e-22)
(1.04483 -0.0435313 -1.63615e-22)
(1.04557 -0.0404763 1.96344e-22)
(1.04617 -0.0376638 -1.68624e-22)
(1.0467 -0.0352437 1.69095e-22)
(1.0471 -0.0329707 -1.39139e-22)
(1.04746 -0.0310937 2.5731e-22)
(1.04772 -0.0292591 -1.30841e-22)
(1.04795 -0.027862 -4.89116e-23)
(1.04812 -0.0263829 8.90644e-23)
(1.04825 -0.025433 -5.5705e-23)
(1.04839 -0.0242413 2.5954e-23)
(1.04845 -0.0237417 -1.71469e-24)
(1.04862 -0.022784 5.41833e-25)
(0.513294 0.0848861 2.28325e-19)
(0.497559 0.095387 0)
(0.485097 0.0965564 1.94802e-21)
(0.481795 0.0975278 -1.9995e-21)
(0.484765 0.0995975 -2.64573e-19)
(0.490543 0.100988 5.37713e-19)
(0.498165 0.101436 8.7935e-21)
(0.507167 0.101045 7.83199e-21)
(0.516837 0.0995881 -2.88822e-19)
(0.526586 0.096858 0)
(0.536083 0.0928188 0)
(0.545154 0.0875263 1.23427e-21)
(0.553718 0.081077 3.30463e-19)
(0.561804 0.073593 -3.29874e-19)
(0.569505 0.0652078 0)
(0.576993 0.0560465 1.33924e-21)
(0.584515 0.0462117 0)
(0.592231 0.0357443 0)
(0.600589 0.0246903 0)
(0.609679 0.0129939 -3.60758e-19)
(0.619695 0.000539296 7.21693e-19)
(0.6312 -0.0121344 -3.60932e-19)
(0.644202 -0.0261992 0)
(0.658991 -0.041592 3.57839e-19)
(0.675699 -0.058206 -3.57203e-19)
(0.694361 -0.0762327 0)
(0.714994 -0.0958106 0)
(0.737528 -0.116958 -1.3223e-21)
(0.761736 -0.139574 3.25354e-19)
(0.787274 -0.163407 -3.24776e-19)
(0.813689 -0.18803 2.39533e-21)
(0.840387 -0.21278 0)
(0.866781 -0.236867 1.3469e-19)
(0.892266 -0.259524 -1.34457e-19)
(0.916243 -0.279959 0)
(0.938273 -0.297407 1.0637e-19)
(0.958106 -0.311242 -1.05433e-19)
(0.975655 -0.321049 -8.77065e-20)
(0.990975 -0.326673 8.80543e-20)
(1.00416 -0.328161 -6.65882e-20)
(1.01532 -0.32577 6.75528e-20)
(1.02462 -0.319911 0)
(1.03228 -0.311061 -3.73249e-22)
(1.03851 -0.299737 0)
(1.04349 -0.286471 -2.93706e-20)
(1.0474 -0.271781 4.72896e-21)
(1.05042 -0.256155 2.52385e-20)
(1.05273 -0.240028 1.63856e-20)
(1.05447 -0.223778 -1.64138e-20)
(1.05578 -0.207713 1.65111e-22)
(1.05678 -0.192082 -8.55087e-21)
(1.05755 -0.17707 2.01847e-21)
(1.05817 -0.162812 6.52563e-21)
(1.05868 -0.149389 5.29883e-23)
(1.05912 -0.136856 -3.20589e-23)
(1.05951 -0.125223 -1.99595e-21)
(1.05987 -0.114493 2.01137e-21)
(1.06019 -0.104632 7.17956e-24)
(1.0605 -0.0956196 8.27245e-24)
(1.06076 -0.0873947 1.00877e-22)
(1.06101 -0.0799297 -9.76664e-23)
(1.06121 -0.0731481 -7.93e-24)
(1.06139 -0.0670302 1.1435e-24)
(1.0615 -0.0614856 0)
(1.06161 -0.0565135 0)
(1.06163 -0.0520066 0)
(1.06165 -0.0479954 2.2391e-22)
(1.06157 -0.0443465 -2.32125e-22)
(1.06152 -0.041137 9.6612e-24)
(1.06135 -0.0381915 -9.09279e-24)
(1.06124 -0.0356544 1.03836e-22)
(1.06098 -0.0332827 -1.05011e-22)
(1.06083 -0.0313193 -1.84502e-24)
(1.06049 -0.0294144 -7.31256e-23)
(1.06034 -0.0279566 1.03136e-22)
(1.05993 -0.0264303 -3.1599e-23)
(1.05979 -0.0254421 2.04909e-23)
(1.05933 -0.0242225 -2.31948e-23)
(1.05925 -0.0237049 4.0477e-24)
(1.05873 -0.0227334 -2.17148e-24)
(0.822334 0.0975006 0)
(0.795664 0.0999407 0)
(0.770629 0.0996995 0)
(0.752625 0.101753 0)