/*--------------------------------*- C++ -*----------------------------------*\
| =========                 |                                                 |
| \\      /  F ield         | OpenFOAM: The Open Source CFD Toolbox           |
|  \\    /   O peration     | Version:  4.1                                   |
|   \\  /    A nd           | Web:      www.OpenFOAM.org                      |
|    \\/     M anipulation  |                                                 |
\*---------------------------------------------------------------------------*/
FoamFile
{
    version     2.0;
    format      ascii;
    class       volScalarField;
    location    "6.9";
    object      p;
}
// * * * * * * * * * * * * * * * * * * * * * * * * * * * * * * * * * * * * * //

dimensions      [0 2 -2 0 0 0 0];

internalField   nonuniform List<scalar> 
2000
(
-0.464148
-0.452296
-0.441326
-0.431153
-0.421658
-0.411773
-0.400068
-0.386615
-0.368762
-0.352033
-0.487333
-0.471706
-0.458112
-0.445065
-0.431475
-0.416163
-0.398491
-0.378641
-0.356303
-0.334896
-0.515508
-0.495362
-0.478548
-0.46139
-0.441783
-0.419335
-0.394614
-0.368712
-0.342043
-0.316422
-0.548666
-0.523166
-0.502239
-0.478951
-0.451037
-0.419977
-0.387854
-0.356239
-0.325664
-0.298115
-0.58595
-0.554323
-0.527832
-0.495665
-0.45726
-0.416743
-0.377294
-0.340392
-0.306561
-0.276459
-0.625369
-0.587186
-0.552616
-0.508622
-0.458275
-0.408207
-0.361894
-0.320308
-0.283403
-0.250963
-0.663479
-0.618976
-0.572846
-0.514621
-0.45198
-0.392985
-0.340564
-0.294845
-0.255153
-0.220303
-0.695727
-0.645444
-0.584567
-0.510839
-0.436561
-0.369765
-0.31218
-0.26299
-0.22077
-0.18373
-0.717364
-0.66142
-0.584069
-0.495038
-0.410523
-0.337331
-0.275674
-0.223787
-0.179548
-0.140853
-0.724213
-0.662114
-0.568061
-0.465478
-0.372694
-0.29466
-0.230085
-0.176386
-0.130888
-0.0914689
-0.358365
-0.364789
-0.367725
-0.370134
-0.372336
-0.37394
-0.374604
-0.37408
-0.372303
-0.369539
-0.362234
-0.368077
-0.370821
-0.373222
-0.375494
-0.377213
-0.378011
-0.377562
-0.375693
-0.372988
-0.369306
-0.373992
-0.376341
-0.378606
-0.380872
-0.382668
-0.383577
-0.383201
-0.381141
-0.378021
-0.37839
-0.381523
-0.38317
-0.385009
-0.387009
-0.388672
-0.389509
-0.389167
-0.387116
-0.381479
-0.388319
-0.389699
-0.390261
-0.391241
-0.392565
-0.393792
-0.394289
-0.39361
-0.390911
-0.384208
-0.398335
-0.397906
-0.39699
-0.396646
-0.39687
-0.397267
-0.397182
-0.395964
-0.393386
-0.383513
-0.408314
-0.406032
-0.40339
-0.401303
-0.400052
-0.39934
-0.398465
-0.396318
-0.39451
-0.381294
-0.418792
-0.414609
-0.410027
-0.406007
-0.403082
-0.401068
-0.399165
-0.395687
-0.393964
-0.379293
-0.430804
-0.424518
-0.417907
-0.411925
-0.407256
-0.403568
-0.399842
-0.394659
-0.390533
-0.376686
-0.445561
-0.436781
-0.428074
-0.420124
-0.413402
-0.407264
-0.400252
-0.391965
-0.381965
-0.369264
-0.366005
-0.360555
-0.353322
-0.344175
-0.333033
-0.319899
-0.304683
-0.287374
-0.268027
-0.24676
-0.223762
-0.199293
-0.173667
-0.147249
-0.120447
-0.0936986
-0.0676087
-0.0428859
-0.0192522
0.00492196
-0.370719
-0.365524
-0.358447
-0.349422
-0.338711
-0.32586
-0.31084
-0.293668
-0.274419
-0.253208
-0.230174
-0.205621
-0.179872
-0.153305
-0.126318
-0.0992656
-0.0728661
-0.0475712
-0.0233344
0.000896991
-0.378298
-0.373501
-0.366834
-0.35861
-0.348153
-0.335622
-0.320917
-0.304008
-0.284968
-0.263815
-0.240585
-0.215944
-0.189998
-0.163129
-0.135755
-0.108299
-0.0812356
-0.0549249
-0.0297757
-0.00420473
-0.385956
-0.381282
-0.374965
-0.367336
-0.357668
-0.345787
-0.331595
-0.315066
-0.296243
-0.27523
-0.252171
-0.227371
-0.201144
-0.173871
-0.145961
-0.117828
-0.089902
-0.0623286
-0.0359258
-0.00837222
-0.390463
-0.388039
-0.381839
-0.374401
-0.365393
-0.354179
-0.340527
-0.324416
-0.305881
-0.285018
-0.262004
-0.237106
-0.210641
-0.182991
-0.154556
-0.125724
-0.0969195
-0.0681475
-0.0403363
-0.0112231
-0.391879
-0.39165
-0.385726
-0.378355
-0.369798
-0.359157
-0.345981
-0.330229
-0.311962
-0.291279
-0.268341
-0.243412
-0.216802
-0.188904
-0.160091
-0.130762
-0.101287
-0.0717368
-0.0427973
-0.013015
-0.39063
-0.3917
-0.385817
-0.378356
-0.370068
-0.359779
-0.346902
-0.3314
-0.31334
-0.292828
-0.270018
-0.24519
-0.218627
-0.190746
-0.161863
-0.132442
-0.102713
-0.0730085
-0.0435464
-0.0140245
-0.387414
-0.387634
-0.381177
-0.373595
-0.365308
-0.355099
-0.342415
-0.327167
-0.309368
-0.289142
-0.266651
-0.242197
-0.216024
-0.188579
-0.160085
-0.131104
-0.101665
-0.0724327
-0.0430848
-0.0144611
-0.382121
-0.379829
-0.372584
-0.3645
-0.355675
-0.345319
-0.332881
-0.318059
-0.300758
-0.281121
-0.259311
-0.23564
-0.210296
-0.183746
-0.156115
-0.128056
-0.0994025
-0.0710977
-0.0423275
-0.014725
-0.372197
-0.368697
-0.360934
-0.351385
-0.341259
-0.330452
-0.318179
-0.303844
-0.287237
-0.268488
-0.247718
-0.225228
-0.201133
-0.175908
-0.14959
-0.122903
-0.0955459
-0.068648
-0.0410843
-0.0148245
-0.345102
-0.349757
-0.34335
-0.332591
-0.321462
-0.310368
-0.298242
-0.284258
-0.268157
-0.250117
-0.230307
-0.209032
-0.186385
-0.162796
-0.138263
-0.113474
-0.0880797
-0.0632254
-0.037694
-0.0136724
-0.316025
-0.326004
-0.320622
-0.308531
-0.296295
-0.285058
-0.273467
-0.260311
-0.245197
-0.228327
-0.209924
-0.190293
-0.169493
-0.147904
-0.125476
-0.102858
-0.0796693
-0.0570472
-0.0337789
-0.0121833
-0.286237
-0.298884
-0.294788
-0.282963
-0.270882
-0.260187
-0.249514
-0.237483
-0.223606
-0.208096
-0.191205
-0.173246
-0.154255
-0.134577
-0.114129
-0.0935337
-0.0723977
-0.0518475
-0.0307033
-0.011231
-0.256934
-0.270583
-0.268153
-0.257742
-0.246635
-0.236781
-0.227058
-0.216134
-0.203488
-0.189314
-0.173869
-0.157472
-0.140152
-0.122232
-0.10361
-0.0848844
-0.0656551
-0.0470205
-0.0278134
-0.0102184
-0.22856
-0.242568
-0.24193
-0.233399
-0.223647
-0.214779
-0.206004
-0.196154
-0.184719
-0.171857
-0.157809
-0.142896
-0.127143
-0.110864
-0.0939413
-0.0769516
-0.0594885
-0.0426162
-0.0251883
-0.00931747
-0.201727
-0.215805
-0.216785
-0.210185
-0.20193
-0.194151
-0.186349
-0.177558
-0.167304
-0.155715
-0.143006
-0.129493
-0.115202
-0.100442
-0.0850869
-0.0696936
-0.0538515
-0.0385925
-0.0227929
-0.00849249
-0.176923
-0.190759
-0.193052
-0.188257
-0.181522
-0.174888
-0.168079
-0.16032
-0.151198
-0.140821
-0.129378
-0.117175
-0.104241
-0.0908837
-0.0769703
-0.0630426
-0.0486865
-0.0349063
-0.0205971
-0.00773657
-0.154209
-0.167561
-0.170883
-0.167721
-0.162459
-0.156974
-0.151149
-0.144385
-0.136334
-0.127098
-0.116842
-0.105862
-0.0941864
-0.0821222
-0.0695339
-0.0569511
-0.0439565
-0.0315312
-0.0185859
-0.00704686
-0.13348
-0.146237
-0.15037
-0.148656
-0.144774
-0.140399
-0.135528
-0.129709
-0.122663
-0.114493
-0.105343
-0.0954981
-0.084985
-0.0741105
-0.0627369
-0.0513851
-0.0396346
-0.0284478
-0.0167477
-0.00641881
-0.114678
-0.126803
-0.131569
-0.131122
-0.128499
-0.125168
-0.121198
-0.116265
-0.110153
-0.102971
-0.0948436
-0.0860454
-0.0766001
-0.0668145
-0.0565497
-0.0463196
-0.0357013
-0.0256419
-0.0150742
-0.00584891
-0.097777
-0.109254
-0.114504
-0.115151
-0.113659
-0.111288
-0.108155
-0.104041
-0.0987888
-0.0925111
-0.0853205
-0.0774789
-0.0690067
-0.060211
-0.0509516
-0.0417375
-0.0321432
-0.023104
-0.0135598
-0.00533473
-0.082735
-0.0935656
-0.0991797
-0.100764
-0.100274
-0.0987698
-0.0963998
-0.0930322
-0.0885601
-0.0831028
-0.0767596
-0.0697828
-0.0621888
-0.0542847
-0.045929
-0.0376273
-0.0289515
-0.0208276
-0.0122011
-0.00487452
-0.0694969
-0.0797055
-0.085589
-0.0879713
-0.0883588
-0.087625
-0.0859376
-0.0832384
-0.079464
-0.0747395
-0.0691532
-0.0629482
-0.0561367
-0.049026
-0.0414734
-0.0339816
-0.0261205
-0.0188086
-0.0109958
-0.00446704
-0.0580136
-0.0676451
-0.0737248
-0.0767785
-0.0779227
-0.0778617
-0.0767734
-0.0746614
-0.0714998
-0.0674191
-0.0624974
-0.0569699
-0.0508449
-0.0444293
-0.0375793
-0.0307958
-0.0236466
-0.0170444
-0.00994235
-0.00411148
-0.0482427
-0.0573568
-0.0635767
-0.0671867
-0.0689717
-0.0694858
-0.0689115
-0.0673037
-0.0646688
-0.0611413
-0.0567911
-0.0518458
-0.0463102
-0.0404911
-0.0342437
-0.0280671
-0.0215277
-0.0155335
-0.00904002
-0.0038073
-0.0401466
-0.0488145
-0.0551329
-0.0591943
-0.0615081
-0.0625004
-0.0623547
-0.0611676
-0.0589721
-0.0559067
-0.0520338
-0.0475748
-0.0425313
-0.0372098
-0.0314648
-0.0257941
-0.0197627
-0.0142749
-0.00828834
-0.00355417
-0.0336944
-0.0419978
-0.048385
-0.0528008
-0.0555347
-0.0569085
-0.0571054
-0.0562551
-0.0544116
-0.0517166
-0.0482263
-0.044157
-0.0395077
-0.0345847
-0.0292419
-0.023976
-0.0183511
-0.0132684
-0.00768712
-0.00335189
-0.0288599
-0.0368916
-0.0433298
-0.0480097
-0.0510571
-0.0527156
-0.0531682
-0.0525697
-0.0509901
-0.0485729
-0.0453699
-0.0415931
-0.0372398
-0.0326157
-0.0275749
-0.0226125
-0.0172927
-0.0125136
-0.00723663
-0.00320013
-0.0255956
-0.0334619
-0.0399472
-0.0448114
-0.0480713
-0.0499202
-0.0505431
-0.050112
-0.0487083
-0.0464765
-0.0434653
-0.0398835
-0.0357278
-0.0313027
-0.0264638
-0.0217028
-0.016588
-0.0120094
-0.00693923
-0.00309555
-0.0238778
-0.0316829
-0.0382146
-0.0431873
-0.0465638
-0.0485136
-0.0492247
-0.0488786
-0.0475646
-0.0454258
-0.0425124
-0.0390272
-0.0349729
-0.0306441
-0.0259109
-0.0212439
-0.0162417
-0.0117482
-0.00680305
-0.00302453
-0.0590928
-0.107867
-0.150937
-0.188313
-0.220232
-0.247136
-0.269997
-0.289793
-0.306787
-0.330606
-0.0317047
-0.0786009
-0.120069
-0.156483
-0.187807
-0.215054
-0.237541
-0.258928
-0.274736
-0.298367
-0.0071302
-0.0516819
-0.0910087
-0.125993
-0.15603
-0.18314
-0.204954
-0.226999
-0.242672
-0.264867
0.0148235
-0.0275456
-0.0649964
-0.0987746
-0.12772
-0.154513
-0.175974
-0.197817
-0.214137
-0.235054
0.0343923
-0.00610713
-0.0420318
-0.0747781
-0.102902
-0.129178
-0.150483
-0.171681
-0.188367
-0.207742
0.0518216
0.0129787
-0.0216249
-0.0533423
-0.0807211
-0.106238
-0.127273
-0.147576
-0.164053
-0.182094
0.0673773
0.0300485
-0.0033523
-0.0340129
-0.0606372
-0.085261
-0.105861
-0.125273
-0.141365
-0.158473
0.0812846
0.0453459
0.013052
-0.0165745
-0.0424564
-0.0662097
-0.0863279
-0.105019
-0.120725
-0.137021
0.0937148
0.0590408
0.0277593
-0.000903242
-0.0260866
-0.0490663
-0.0687152
-0.0867985
-0.102068
-0.117529
0.104799
0.0712627
0.0409014
0.0131147
-0.01142
-0.0337131
-0.0528931
-0.0703996
-0.0851998
-0.0998569
0.11464
0.0821188
0.0525909
0.0255934
0.00166286
-0.0200056
-0.0387228
-0.0556829
-0.070049
-0.0839848
0.12332
0.0916994
0.0629229
0.0366344
0.0132619
-0.00783946
-0.026127
-0.0425966
-0.0565877
-0.0698838
0.130901
0.100078
0.0719744
0.0463182
0.0234509
0.00285434
-0.0150531
-0.0310942
-0.0447615
-0.0574941
0.137439
0.107315
0.0798059
0.0547066
0.032287
0.0121323
-0.00544588
-0.0211166
-0.0345068
-0.0467571
0.14298
0.113465
0.0864705
0.0618521
0.0398216
0.0200469
0.00274883
-0.0126101
-0.0257723
-0.0376259
0.147544
0.118564
0.0920073
0.0677973
0.0460979
0.0266425
0.00957512
-0.00553252
-0.0185177
-0.0300605
0.151151
0.122618
0.0964365
0.0725719
0.0511483
0.0319519
0.0150659
0.000148994
-0.0127105
-0.0240265
0.153812
0.125651
0.099789
0.0762102
0.0550076
0.0360099
0.0192557
0.00446878
-0.00831807
-0.0194927
0.155542
0.127685
0.102087
0.0787396
0.0577115
0.0388601
0.0221937
0.00748211
-0.00528107
-0.0164008
0.156276
0.12864
0.103226
0.0800467
0.0591474
0.0404006
0.0237937
0.00912743
-0.00363165
-0.0147462
0.659731
0.661305
0.652742
0.634867
0.608666
0.573075
0.523889
0.454366
0.362499
0.296221
0.589636
0.583964
0.563754
0.536083
0.501552
0.456814
0.396377
0.313242
0.205739
0.127759
0.516113
0.501583
0.471931
0.436135
0.393637
0.339704
0.268364
0.172661
0.050797
-0.0361689
0.432959
0.41199
0.376737
0.335281
0.286012
0.223669
0.142524
0.0362425
-0.0984388
-0.190088
0.346298
0.320246
0.281064
0.235265
0.180344
0.110763
0.0210928
-0.0931245
-0.237554
-0.328343
0.261244
0.230545
0.18811
0.138687
0.0790739
0.00359118
-0.0932598
-0.214693
-0.357712
-0.448551
0.179868
0.145054
0.100107
0.0479014
-0.0152975
-0.0950331
-0.196545
-0.321378
-0.459877
-0.548435
0.103278
0.0651278
0.0186066
-0.0353193
-0.10077
-0.183017
-0.286217
-0.410717
-0.54272
-0.626107
0.0321135
-0.00824357
-0.0549831
-0.109726
-0.176381
-0.259028
-0.361217
-0.481888
-0.604278
-0.680746
-0.034482
-0.0739383
-0.120119
-0.174786
-0.241086
-0.322302
-0.421019
-0.534335
-0.643814
-0.712878
1.1175
1.13641
1.15828
1.18318
1.21107
1.24162
1.27393
1.30544
1.33272
1.36279
1.11083
1.12849
1.14941
1.17332
1.19996
1.22897
1.2594
1.28859
1.31305
1.34094
1.09723
1.11245
1.1315
1.15346
1.17765
1.20361
1.23028
1.25482
1.27389
1.29721
1.07628
1.08796
1.10431
1.1234
1.14401
1.1655
1.18665
1.20436
1.2155
1.2321
1.04744
1.05462
1.06755
1.08298
1.09896
1.11467
1.12869
1.13754
1.13836
1.14636
1.01017
1.01197
1.02084
1.03192
1.0424
1.05122
1.05669
1.05492
1.04326
1.04109
0.964206
0.96003
0.964467
0.970631
0.974778
0.975655
0.971347
0.95744
0.93141
0.917854
0.907918
0.897396
0.897788
0.899103
0.896492
0.888724
0.873728
0.846556
0.804715
0.778712
0.841958
0.825466
0.822512
0.818459
0.8083
0.791312
0.765111
0.724046
0.665625
0.626241
0.758848
0.744266
0.740655
0.730698
0.712253
0.6856
0.647766
0.592389
0.51708
0.463988
1.00026
1.00071
1.00175
1.0033
1.00505
1.00695
1.00909
1.01157
1.01448
1.01791
1.02195
1.02663
1.03206
1.03834
1.0456
1.05396
1.06357
1.07456
1.0871
1.10131
1.00021
1.00062
1.00159
1.00301
1.00462
1.00638
1.00839
1.01073
1.01349
1.01675
1.02058
1.02504
1.03021
1.0362
1.04313
1.05111
1.06026
1.07071
1.08259
1.09597
1.00015
1.00043
1.00119
1.00235
1.00371
1.00521
1.00695
1.00901
1.01146
1.01437
1.01779
1.02179
1.02646
1.03187
1.03812
1.0453
1.05352
1.06284
1.07337
1.08503
1.00005
1.0001
1.00052
1.0013
1.00228
1.0034
1.00473
1.00635
1.00832
1.0107
1.0135
1.01681
1.02069
1.0252
1.0304
1.03635
1.0431
1.05067
1.05908
1.06803
0.999885
0.999595
0.999558
0.999833
1.00029
1.0009
1.00168
1.0027
1.004
1.00563
1.0076
1.00996
1.01276
1.01602
1.01977
1.024
1.02871
1.03381
1.03924
1.04437
0.999657
0.998911
0.998293
0.997914
0.997707
0.99763
0.997702
0.997964
0.99844
0.999091
0.999988
1.00114
1.00255
1.00419
1.00604
1.008
1.01004
1.01187
1.01342
1.01348
0.999353
0.998019
0.996701
0.995543
0.99453
0.993616
0.992795
0.992058
0.991444
0.99095
0.990563
0.990237
0.989929
0.989544
0.989012
0.988111
0.986751
0.984385
0.981048
0.974835
0.998962
0.996897
0.994759
0.992703
0.990761
0.988857
0.986952
0.985111
0.983271
0.981379
0.979401
0.977259
0.974876
0.972057
0.96869
0.964353
0.958963
0.951467
0.942183
0.927618
0.998495
0.99554
0.992455
0.98935
0.986301
0.983306
0.980308
0.977195
0.97392
0.97042
0.966631
0.962402
0.957621
0.951961
0.945311
0.936938
0.926975
0.913476
0.897623
0.872782
0.99795
0.993797
0.989647
0.985528
0.981378
0.97714
0.972757
0.968145
0.96323
0.957893
0.952032
0.945395
0.937835
0.928797
0.918182
0.904619
0.88854
0.86611
0.840644
0.800301
0.99745
0.992371
0.987293
0.982113
0.976765
0.9712
0.965367
0.959168
0.952497
0.945183
0.937077
0.927855
0.917313
0.904776
0.89004
0.871567
0.849383
0.819324
0.781735
0.723495
0.996986
0.990993
0.984963
0.978734
0.972248
0.965468
0.958338
0.95074
0.942548
0.933557
0.923605
0.912326
0.899513
0.884451
0.866932
0.845475
0.820006
0.787522
0.748711
0.6999
0.996518
0.989624
0.982646
0.975364
0.967745
0.959772
0.951385
0.942445
0.932816
0.922274
0.910652
0.89758
0.882854
0.865802
0.846229
0.822914
0.79586
0.76314
0.72545
0.680278
0.996037
0.988271
0.980367
0.972021
0.963251
0.954077
0.944443
0.934191
0.923173
0.911159
0.897983
0.883285
0.866878
0.848152
0.826963
0.802306
0.774304
0.741414
0.70441
0.660717
0.995547
0.986945
0.978151
0.968745
0.958816
0.948448
0.937593
0.926079
0.913746
0.900361
0.885767
0.869624
0.851771
0.83166
0.80921
0.783553
0.754918
0.721897
0.685485
0.64322
0.995061
0.985651
0.976015
0.965573
0.954498
0.942959
0.930927
0.918216
0.904654
0.890012
0.874143
0.856735
0.837655
0.816414
0.792985
0.766599
0.737565
0.704612
0.66887
0.628064
0.994579
0.984399
0.973978
0.962542
0.950352
0.937676
0.924519
0.910684
0.895987
0.8802
0.863196
0.844687
0.824571
0.802411
0.778223
0.751328
0.722082
0.689367
0.654306
0.614837
0.994104
0.9832
0.972064
0.959687
0.946421
0.932654
0.918432
0.90355
0.887811
0.870993
0.852981
0.83352
0.812532
0.789628
0.764856
0.737623
0.708299
0.675912
0.641501
0.603242
0.99364
0.982066
0.970289
0.957033
0.942741
0.927936
0.912715
0.896869
0.880182
0.86244
0.843541
0.82326
0.801538
0.778038
0.75282
0.725378
0.696063
0.664048
0.630255
0.593109
0.993193
0.981007
0.968666
0.954599
0.93934
0.92356
0.907412
0.890682
0.873142
0.854578
0.834902
0.813919
0.791583
0.767607
0.742051
0.714493
0.685247
0.653626
0.620418
0.584299
0.992768
0.98003
0.967201
0.952393
0.936236
0.919551
0.902553
0.885025
0.86672
0.847432
0.827079
0.805497
0.782651
0.758296
0.732489
0.704881
0.675745
0.64452
0.611863
0.576686
0.99237
0.979144
0.965895
0.950419
0.933441
0.91593
0.898162
0.879919
0.860937
0.841015
0.820078
0.79799
0.77472
0.750067
0.724075
0.696465
0.667461
0.636624
0.604478
0.570154
0.992001
0.978346
0.964737
0.948668
0.930959
0.912713
0.894258
0.87538
0.855805
0.835334
0.813898
0.791384
0.767765
0.742878
0.716753
0.689173
0.660314
0.629843
0.598163
0.564603
0.991663
0.977616
0.963689
0.947121
0.928794
0.909912
0.890853
0.871417
0.851328
0.830389
0.808532
0.785664
0.76176
0.736691
0.710473
0.682942
0.654229
0.624095
0.592832
0.559945
0.991371
0.976914
0.962687
0.94575
0.926952
0.907539
0.88795
0.86803
0.847505
0.826177
0.80397
0.780811
0.756677
0.731468
0.705187
0.677716
0.649142
0.619307
0.58841
0.556104
0.99114
0.976195
0.961693
0.944567
0.925464
0.905614
0.88556
0.865222
0.844335
0.82269
0.800199
0.776806
0.75249
0.727176
0.700853
0.673443
0.644995
0.615419
0.584833
0.553016
0.991033
0.975479
0.960776
0.943666
0.924389
0.904162
0.883693
0.863006
0.841829
0.819931
0.797212
0.773634
0.749175
0.723784
0.697436
0.670082
0.641743
0.612381
0.582049
0.550626
0.990844
0.97478
0.960065
0.94309
0.92366
0.903084
0.882289
0.861354
0.83997
0.81788
0.794988
0.77127
0.746708
0.721263
0.694901
0.667594
0.639343
0.610151
0.58002
0.548899
0.991757
0.97616
0.961303
0.943618
0.923412
0.902342
0.881315
0.860256
0.838749
0.816527
0.793511
0.769699
0.74507
0.719592
0.693222
0.665951
0.637763
0.608692
0.578711
0.547816
0.98931
0.976901
0.964962
0.946339
0.924287
0.902207
0.880901
0.859776
0.838199
0.815889
0.792796
0.768927
0.744261
0.718764
0.69239
0.665136
0.63698
0.607972
0.578079
0.547342
0.653712
0.580558
0.509985
0.433413
0.35265
0.273371
0.197618
0.12557
0.0577276
-0.0040975
0.645033
0.569332
0.496126
0.424655
0.35017
0.276274
0.205923
0.139234
0.0769569
0.0203299
0.629982
0.557914
0.485058
0.418035
0.350098
0.281498
0.215693
0.153596
0.0956584
0.0421289
0.614102
0.547434
0.476689
0.41254
0.349867
0.28625
0.224498
0.166204
0.111814
0.0613546
0.599375
0.537644
0.470077
0.408361
0.349847
0.290793
0.232775
0.177711
0.126366
0.0785484
0.586133
0.528588
0.464678
0.405394
0.350127
0.295003
0.240414
0.188196
0.139437
0.0939206
0.574348
0.520362
0.460155
0.403377
0.350742
0.298891
0.247393
0.197729
0.151195
0.10768
0.563959
0.513033
0.456332
0.402066
0.351664
0.302503
0.253717
0.20636
0.161773
0.120009
0.554879
0.506595
0.453094
0.401254
0.352815
0.305868
0.259415
0.214129
0.171271
0.131049
0.547
0.500997
0.450356
0.400788
0.354103
0.308997
0.264525
0.221076
0.179762
0.140908
0.54021
0.496171
0.448045
0.400554
0.355443
0.311884
0.269081
0.227241
0.187305
0.149666
0.534405
0.492044
0.4461
0.400464
0.356757
0.31451
0.273107
0.232658
0.193945
0.157387
0.529486
0.488542
0.444462
0.400453
0.357984
0.31685
0.276617
0.237359
0.199722
0.164121
0.525368
0.485598
0.443081
0.400466
0.359069
0.318876
0.279617
0.241368
0.204668
0.16991
0.521974
0.483149
0.441911
0.40046
0.35997
0.320561
0.282105
0.244699
0.208803
0.174794
0.51924
0.481145
0.440916
0.400402
0.360651
0.321881
0.284077
0.247362
0.212128
0.178729
0.51711
0.479537
0.440064
0.400267
0.361091
0.322821
0.285533
0.249377
0.214701
0.181841
0.51554
0.47828
0.439313
0.400013
0.361251
0.323358
0.28647
0.250759
0.216541
0.184114
0.514527
0.477373
0.438631
0.399572
0.361042
0.323399
0.286809
0.251446
0.217605
0.185557
0.514124
0.476967
0.438211
0.399113
0.360574
0.322994
0.286545
0.251384
0.217771
0.18597
)
;

boundaryField
{
    bottom
    {
        type            symmetryPlane;
    }
    right
    {
        type            fixedValue;
        value           uniform 0;
    }
    top
    {
        type            symmetryPlane;
    }
    left
    {
        type            fixedValue;
        value           uniform 1;
    }
    cylinder
    {
        type            zeroGradient;
    }
    defaultFaces
    {
        type            empty;
    }
}


// ************************************************************************* //
