/*--------------------------------*- C++ -*----------------------------------*\
| =========                 |                                                 |
| \\      /  F ield         | OpenFOAM: The Open Source CFD Toolbox           |
|  \\    /   O peration     | Version:  4.1                                   |
|   \\  /    A nd           | Web:      www.OpenFOAM.org                      |
|    \\/     M anipulation  |                                                 |
\*---------------------------------------------------------------------------*/
FoamFile
{
    version     2.0;
    format      ascii;
    class       volScalarField;
    location    "2.6";
    object      p;
}
// * * * * * * * * * * * * * * * * * * * * * * * * * * * * * * * * * * * * * //

dimensions      [0 2 -2 0 0 0 0];

internalField   nonuniform List<scalar> 
2000
(
0.104439
0.112683
0.120625
0.130705
0.142607
0.155016
0.166782
0.177189
0.185718
0.191644
0.0970781
0.106308
0.115658
0.1277
0.141835
0.156422
0.170141
0.182189
0.191986
0.199361
0.0910071
0.101287
0.112345
0.126704
0.143344
0.160254
0.175974
0.189697
0.20096
0.209969
0.0867189
0.0981061
0.111171
0.128163
0.147491
0.166762
0.18442
0.199709
0.212294
0.22261
0.0847527
0.0972951
0.112643
0.132512
0.154605
0.176182
0.195654
0.212366
0.226132
0.237586
0.0856821
0.0994109
0.117262
0.140153
0.164971
0.188696
0.209787
0.22773
0.242517
0.254943
0.0900933
0.105013
0.125508
0.15144
0.178822
0.204453
0.226917
0.245881
0.261529
0.274763
0.098554
0.114626
0.137814
0.166662
0.196325
0.223546
0.247098
0.266857
0.283205
0.29708
0.111579
0.128712
0.154533
0.186021
0.217578
0.24601
0.270331
0.290645
0.307517
0.321837
0.129595
0.147642
0.175908
0.209621
0.242594
0.271812
0.296569
0.317178
0.334359
0.348861
0.1699
0.172743
0.176739
0.181501
0.186182
0.190036
0.19253
0.193359
0.19242
0.189772
0.168207
0.171133
0.175151
0.179919
0.184637
0.188572
0.191196
0.192198
0.191475
0.189068
0.164871
0.167995
0.172055
0.176844
0.181648
0.185758
0.188649
0.19
0.189705
0.187773
0.160033
0.163468
0.167605
0.172456
0.177421
0.181822
0.185132
0.187009
0.187338
0.186097
0.153886
0.157741
0.162011
0.167
0.172241
0.177081
0.180978
0.18356
0.18469
0.184328
0.146666
0.151042
0.155528
0.160776
0.166453
0.171915
0.176588
0.18005
0.182137
0.182805
0.138638
0.14363
0.148443
0.154119
0.160439
0.16674
0.172387
0.176895
0.180073
0.181885
0.130087
0.13578
0.141066
0.147389
0.15461
0.161994
0.168807
0.17449
0.178848
0.181839
0.121317
0.127789
0.13373
0.140973
0.149404
0.158155
0.166352
0.173352
0.178925
0.182756
0.11265
0.119973
0.126789
0.135273
0.145265
0.155702
0.165574
0.174194
0.181185
0.18532
0.185481
0.17994
0.1734
0.165979
0.157811
0.149042
0.139804
0.130205
0.120332
0.110253
0.100023
0.0896863
0.0792735
0.068809
0.0583101
0.0477896
0.0372552
0.0267179
0.0161476
0.00568851
0.184804
0.179465
0.173189
0.165967
0.157929
0.14925
0.140076
0.130518
0.120666
0.110594
0.100358
0.0900057
0.0795694
0.0690749
0.0585411
0.0479817
0.0374049
0.0268233
0.0162052
0.00570669
0.183578
0.178631
0.172854
0.166004
0.158212
0.149705
0.140652
0.131171
0.121358
0.111294
0.101044
0.0906577
0.0801723
0.0696164
0.0590111
0.0483722
0.0377096
0.0270375
0.0163253
0.00572584
0.182013
0.177618
0.172518
0.166168
0.158711
0.150443
0.141557
0.132181
0.122419
0.112363
0.102087
0.091647
0.0810857
0.0704359
0.0597221
0.0489629
0.0381707
0.027362
0.0165084
0.00575737
0.180411
0.17669
0.172369
0.166586
0.159519
0.151535
0.142849
0.133592
0.123883
0.113828
0.10351
0.0929929
0.082326
0.0715473
0.0606857
0.0497637
0.0387964
0.0278033
0.0167601
0.00580534
0.179118
0.176143
0.172616
0.167401
0.160739
0.15306
0.144586
0.13545
0.125788
0.115718
0.105336
0.0947132
0.0839074
0.0729623
0.061912
0.050783
0.039594
0.0283679
0.0170855
0.00587418
0.178503
0.176306
0.173509
0.16879
0.162498
0.155112
0.146837
0.137808
0.128174
0.118068
0.107595
0.0968351
0.0858537
0.0747015
0.0634182
0.0520353
0.0405754
0.0290649
0.0174916
0.00596889
0.178807
0.177383
0.175228
0.170901
0.164918
0.157776
0.149653
0.140691
0.131051
0.120877
0.110279
0.0993491
0.0881575
0.0767613
0.0652055
0.0535259
0.0417492
0.0299044
0.0179874
0.00609638
0.179689
0.179138
0.177614
0.173682
0.168039
0.161145
0.15316
0.144241
0.134559
0.124267
0.113489
0.102328
0.0908638
0.0791632
0.0672774
0.0552473
0.043103
0.0308748
0.0185639
0.00625377
0.182161
0.182588
0.181288
0.177552
0.1721
0.165323
0.157407
0.14851
0.138791
0.128397
0.117452
0.106059
0.0943062
0.0822646
0.069993
0.0575388
0.0449383
0.0322257
0.0194051
0.0065364
0.192219
0.189406
0.186928
0.182545
0.176437
0.169079
0.160692
0.151398
0.14133
0.130623
0.119397
0.10775
0.0957641
0.0835054
0.0710293
0.0583804
0.0455939
0.0326993
0.0197059
0.00664181
0.199698
0.194317
0.190004
0.184444
0.177447
0.169432
0.160608
0.151045
0.140823
0.130044
0.1188
0.107172
0.0952268
0.0830225
0.0706069
0.05802
0.0452948
0.0324567
0.0195271
0.00652393
0.206277
0.199251
0.193472
0.186835
0.179034
0.170401
0.161117
0.151226
0.14078
0.129854
0.118522
0.106848
0.0948892
0.0826926
0.0703001
0.0577467
0.0450633
0.0322711
0.0194033
0.00645067
0.21249
0.204208
0.197156
0.189495
0.180923
0.171695
0.161953
0.151724
0.141035
0.129939
0.118493
0.106747
0.0947471
0.0825323
0.0701383
0.0575951
0.0449317
0.0321643
0.0193344
0.00640201
0.218344
0.208996
0.200807
0.192207
0.182917
0.17313
0.162948
0.15238
0.141439
0.13016
0.118585
0.106751
0.0946935
0.0824455
0.0700364
0.0574912
0.0448364
0.032083
0.0192792
0.00635875
0.22377
0.213521
0.204338
0.194906
0.184968
0.174664
0.164065
0.153168
0.141974
0.130504
0.118786
0.106851
0.094723
0.0824285
0.0699916
0.0574328
0.0447759
0.0320267
0.0192393
0.0063241
0.228731
0.217742
0.207704
0.197541
0.187024
0.176249
0.165261
0.15405
0.142608
0.130945
0.119081
0.107035
0.0948272
0.0824759
0.0700008
0.0574183
0.0447497
0.0319957
0.0192152
0.00629821
0.233228
0.221634
0.210867
0.200069
0.189039
0.177839
0.166495
0.15499
0.14331
0.131458
0.119446
0.107286
0.0949912
0.0825759
0.0700551
0.0574411
0.0447528
0.0319864
0.0192047
0.0062797
0.237276
0.225186
0.213803
0.202457
0.190978
0.179399
0.167731
0.155954
0.14405
0.132017
0.11986
0.107585
0.0952008
0.0827171
0.0701453
0.0574939
0.0447799
0.0319951
0.0192052
0.00626748
0.240895
0.228398
0.216496
0.204681
0.192811
0.180897
0.168939
0.156914
0.144803
0.132599
0.120303
0.107915
0.095442
0.0828883
0.0702624
0.05757
0.0448259
0.0320182
0.0192148
0.00626054
0.244106
0.231275
0.218938
0.206726
0.194518
0.182311
0.170095
0.157847
0.145547
0.133185
0.120757
0.108262
0.095702
0.0830788
0.070398
0.0576626
0.0448857
0.032052
0.0192313
0.00625786
0.246933
0.233826
0.221127
0.208578
0.196082
0.18362
0.171178
0.158732
0.146262
0.133756
0.121207
0.108612
0.095969
0.0832786
0.0705438
0.0577652
0.0449544
0.0320932
0.0192526
0.00625845
0.249394
0.236061
0.223062
0.210232
0.197491
0.184811
0.172173
0.159553
0.146932
0.134297
0.121639
0.108952
0.0962323
0.0834788
0.0706924
0.0578719
0.0450274
0.0321385
0.0192768
0.00626139
0.25151
0.237992
0.224746
0.211683
0.198736
0.185872
0.173066
0.160296
0.147545
0.134796
0.122041
0.109271
0.0964825
0.0836712
0.0708371
0.0579772
0.0451006
0.0321848
0.019302
0.00626585
0.253295
0.239627
0.226181
0.212928
0.199812
0.186794
0.173847
0.160951
0.148088
0.135242
0.122403
0.109561
0.0967115
0.083849
0.070972
0.0580764
0.0451703
0.0322296
0.0193267
0.00627109
0.254765
0.240977
0.227372
0.213966
0.200713
0.18757
0.174509
0.161509
0.148553
0.135626
0.122717
0.109814
0.0969126
0.084006
0.071092
0.0581654
0.0452334
0.0322705
0.0193495
0.00627646
0.255931
0.24205
0.228321
0.214797
0.201438
0.188197
0.175045
0.161963
0.148933
0.135942
0.122975
0.110024
0.09708
0.0841375
0.0711931
0.0582408
0.045287
0.0323056
0.0193691
0.00628144
0.256802
0.242852
0.229032
0.21542
0.201983
0.18867
0.17545
0.162307
0.149223
0.136183
0.123174
0.110185
0.0972093
0.0842395
0.0712718
0.0582997
0.0453292
0.0323334
0.0193847
0.00628566
0.257389
0.243389
0.229506
0.215836
0.202347
0.188986
0.175723
0.162539
0.149418
0.136346
0.123308
0.110295
0.0972974
0.0843091
0.0713256
0.0583401
0.0453582
0.0323527
0.0193955
0.0062897
0.257708
0.243672
0.229751
0.216047
0.202531
0.189146
0.17586
0.162655
0.149516
0.136428
0.123376
0.11035
0.0973419
0.0843444
0.0713529
0.0583607
0.0453727
0.0323631
0.0193993
0.0062972
0.360738
0.334211
0.309763
0.287562
0.26769
0.250117
0.234829
0.221589
0.210417
0.199543
0.370724
0.345041
0.321236
0.299385
0.279561
0.261698
0.245866
0.231602
0.219526
0.207465
0.379415
0.354578
0.3314
0.309906
0.290176
0.272107
0.255877
0.240918
0.228253
0.215505
0.3869
0.362755
0.340081
0.318891
0.29928
0.281126
0.264678
0.249326
0.236115
0.222877
0.393346
0.36979
0.347554
0.326649
0.307174
0.289007
0.272405
0.256786
0.243085
0.229565
0.398928
0.37589
0.354049
0.333414
0.314084
0.295942
0.279226
0.263437
0.249347
0.235622
0.403777
0.3812
0.359713
0.33933
0.320144
0.302055
0.285264
0.269368
0.254965
0.241058
0.407995
0.385827
0.36466
0.344513
0.325469
0.307449
0.290611
0.274643
0.259991
0.245919
0.411669
0.389866
0.368987
0.34906
0.330154
0.312209
0.295347
0.279328
0.264481
0.250259
0.41487
0.393391
0.372772
0.353047
0.334275
0.316409
0.299538
0.283482
0.26848
0.254119
0.417625
0.396453
0.376074
0.35654
0.337895
0.320108
0.30324
0.287156
0.272025
0.257536
0.420006
0.399102
0.378948
0.35959
0.341066
0.323355
0.306497
0.290389
0.275151
0.260541
0.42204
0.401384
0.381435
0.36224
0.343831
0.326191
0.309348
0.293219
0.277887
0.26316
0.423765
0.403332
0.383572
0.364527
0.346224
0.328651
0.311823
0.295673
0.280256
0.265416
0.425205
0.404973
0.385385
0.366479
0.348275
0.330763
0.31395
0.297778
0.282281
0.267329
0.42638
0.406331
0.386899
0.368119
0.350006
0.33255
0.315749
0.299553
0.283979
0.268914
0.427306
0.407421
0.388131
0.369466
0.351435
0.334028
0.317236
0.301014
0.285364
0.270185
0.427995
0.408257
0.389095
0.370532
0.352575
0.33521
0.318423
0.302171
0.286445
0.271152
0.428461
0.408857
0.389811
0.371342
0.353451
0.336122
0.319336
0.303049
0.287244
0.27183
0.428679
0.409199
0.390263
0.371884
0.354057
0.336764
0.31998
0.303661
0.287781
0.272248
0.684931
0.681373
0.673842
0.664103
0.652457
0.638258
0.620591
0.599215
0.577086
0.567729
0.65407
0.647789
0.637145
0.625048
0.611126
0.594191
0.57327
0.54833
0.522679
0.510865
0.621007
0.612323
0.599571
0.585497
0.569291
0.5496
0.525532
0.497301
0.468452
0.454523
0.585403
0.575182
0.561143
0.545493
0.527227
0.505012
0.478096
0.44702
0.415447
0.39983
0.549103
0.537645
0.52258
0.505551
0.485462
0.461035
0.431657
0.39824
0.364694
0.347797
0.512993
0.500444
0.48451
0.466283
0.44462
0.418327
0.386922
0.351396
0.317442
0.299378
0.477495
0.464021
0.44741
0.428211
0.405264
0.377493
0.344431
0.30792
0.274123
0.255207
0.443027
0.428775
0.411718
0.3918
0.367906
0.339031
0.305152
0.268327
0.235106
0.215831
0.410026
0.395039
0.377904
0.357539
0.33296
0.303518
0.269384
0.232929
0.200847
0.181658
0.378118
0.3636
0.346337
0.325702
0.300853
0.271295
0.237453
0.202052
0.171658
0.152904
0.89001
0.890297
0.891725
0.89438
0.898262
0.903295
0.909195
0.91526
0.921611
0.933633
0.886308
0.886228
0.8874
0.889767
0.893278
0.897851
0.9032
0.908609
0.914204
0.925755
0.878901
0.87811
0.878782
0.880578
0.883356
0.887019
0.891259
0.895359
0.899564
0.91005
0.867796
0.865995
0.865948
0.866909
0.868611
0.870942
0.873557
0.875744
0.877934
0.886848
0.853016
0.849964
0.849012
0.848897
0.849212
0.849826
0.850348
0.850073
0.849678
0.856584
0.834595
0.830115
0.828118
0.826723
0.825381
0.823945
0.821967
0.818758
0.815293
0.81983
0.812645
0.806623
0.803491
0.80065
0.797423
0.793657
0.788843
0.782321
0.7754
0.777296
0.787062
0.779518
0.7753
0.770939
0.765677
0.759385
0.751492
0.741381
0.730739
0.729818
0.758194
0.749238
0.744045
0.73804
0.730595
0.721643
0.710518
0.696659
0.682156
0.678349
0.724146
0.715937
0.710161
0.7024
0.692725
0.681074
0.666644
0.648981
0.630601
0.623946
0.996148
0.988562
0.981144
0.97381
0.966546
0.959383
0.952355
0.945491
0.938818
0.932361
0.926177
0.920321
0.91483
0.909741
0.905104
0.900971
0.8974
0.894449
0.89218
0.890645
0.996103
0.988432
0.980919
0.973485
0.966119
0.95885
0.951713
0.944732
0.937938
0.931354
0.925048
0.919058
0.913414
0.908154
0.903324
0.898974
0.895156
0.891921
0.889324
0.887398
0.99602
0.988169
0.980463
0.972833
0.965269
0.957802
0.950462
0.943274
0.936257
0.929399
0.922825
0.916551
0.910593
0.904987
0.899771
0.894986
0.890671
0.886865
0.88361
0.880891
0.995894
0.987771
0.979774
0.971846
0.963978
0.956193
0.948515
0.940969
0.933571
0.926418
0.919486
0.912793
0.906372
0.900253
0.894464
0.889028
0.88397
0.879304
0.875052
0.871113
0.995724
0.98724
0.978861
0.970548
0.962293
0.954116
0.946038
0.938069
0.930183
0.922538
0.915091
0.907836
0.900798
0.893995
0.88744
0.881137
0.875086
0.869265
0.863674
0.85806
0.995509
0.98657
0.977711
0.968905
0.960145
0.951443
0.942818
0.934262
0.925899
0.917695
0.909611
0.901662
0.893863
0.886217
0.878712
0.87133
0.864038
0.856765
0.849494
0.841729
0.995252
0.985778
0.976366
0.967002
0.957681
0.948408
0.939157
0.929971
0.920966
0.912043
0.903186
0.894405
0.885697
0.877042
0.868406
0.859734
0.850959
0.841935
0.832651
0.822224
0.994938
0.984812
0.974718
0.964668
0.954646
0.944585
0.934618
0.924839
0.915092
0.905349
0.895618
0.88589
0.876138
0.866315
0.856356
0.846167
0.83564
0.824536
0.812899
0.799331
0.994638
0.983898
0.973153
0.962323
0.951496
0.940816
0.930213
0.919594
0.908951
0.898281
0.887569
0.876781
0.865869
0.854761
0.843361
0.831527
0.819103
0.8057
0.791425
0.773965
0.994127
0.982364
0.970611
0.958979
0.947407
0.935836
0.924253
0.912651
0.901006
0.889286
0.877448
0.865432
0.853157
0.840511
0.827345
0.81345
0.798601
0.782283
0.764751
0.7428
0.993908
0.981715
0.969514
0.957302
0.945059
0.932775
0.920437
0.908021
0.895488
0.882791
0.869873
0.856656
0.843039
0.828884
0.814013
0.798174
0.781062
0.762049
0.740619
0.713933
0.993733
0.98119
0.968624
0.95603
0.943398
0.930709
0.917938
0.905052
0.892009
0.878759
0.865239
0.851368
0.837041
0.822124
0.806447
0.789779
0.771858
0.752243
0.730726
0.706518
0.993572
0.980695
0.967779
0.954825
0.941822
0.928744
0.915561
0.902238
0.888733
0.874993
0.860955
0.846537
0.831643
0.816148
0.799904
0.782725
0.76441
0.744688
0.723387
0.70011
0.993412
0.980203
0.966939
0.953627
0.940252
0.926787
0.913198
0.89945
0.885498
0.871291
0.856765
0.841844
0.826437
0.810437
0.793715
0.776126
0.757511
0.737689
0.716486
0.693685
0.993255
0.979722
0.96612
0.95246
0.93873
0.924897
0.910928
0.896784
0.882423
0.867793
0.852834
0.837475
0.821636
0.805221
0.788126
0.770233
0.751417
0.731555
0.710509
0.688167
0.993104
0.979259
0.965334
0.951345
0.937279
0.923103
0.908781
0.894276
0.879545
0.86454
0.849205
0.833475
0.817279
0.800537
0.783162
0.765059
0.746135
0.726304
0.705463
0.683541
0.992959
0.97882
0.964588
0.950288
0.935909
0.921414
0.906768
0.891934
0.876872
0.861537
0.845876
0.829833
0.813345
0.796345
0.77876
0.760519
0.741549
0.721791
0.701163
0.679616
0.992823
0.978405
0.963888
0.949299
0.934628
0.91984
0.904899
0.889769
0.874412
0.858786
0.842846
0.826539
0.809812
0.792609
0.774871
0.756542
0.737566
0.717903
0.697487
0.676288
0.992696
0.978019
0.963237
0.948381
0.933443
0.918388
0.903179
0.887784
0.872167
0.856289
0.840109
0.823581
0.806661
0.7893
0.771452
0.753072
0.734118
0.714563
0.694355
0.673478
0.992578
0.977664
0.962638
0.947538
0.932357
0.917061
0.901613
0.885983
0.870137
0.854041
0.837657
0.820947
0.80387
0.786388
0.768462
0.750059
0.731146
0.711706
0.691698
0.671117
0.992471
0.977339
0.962094
0.946774
0.931374
0.915862
0.900202
0.884365
0.86832
0.852037
0.835481
0.818618
0.801416
0.783842
0.765864
0.747457
0.728596
0.709272
0.689453
0.669141
0.992374
0.977047
0.961605
0.946088
0.930495
0.914791
0.898944
0.882927
0.866711
0.850267
0.833567
0.81658
0.799278
0.781634
0.763623
0.745225
0.726422
0.70721
0.687566
0.667495
0.992287
0.976788
0.961172
0.945482
0.929718
0.913847
0.897838
0.881665
0.865303
0.848724
0.831904
0.814815
0.797435
0.779739
0.761709
0.743328
0.724585
0.705478
0.685991
0.666135
0.992212
0.976562
0.960795
0.944955
0.929043
0.913029
0.896881
0.880576
0.86409
0.847399
0.830479
0.813309
0.795866
0.778133
0.760093
0.741735
0.723049
0.704038
0.684691
0.665021
0.992148
0.976369
0.960473
0.944506
0.928469
0.912334
0.896069
0.879654
0.863065
0.846281
0.829282
0.812046
0.794556
0.776796
0.758753
0.740418
0.721785
0.702859
0.683634
0.664123
0.992094
0.976209
0.960206
0.944134
0.927994
0.911759
0.8954
0.878894
0.862222
0.845364
0.828301
0.811014
0.793488
0.775709
0.757667
0.739355
0.720769
0.701916
0.682793
0.663414
0.992051
0.976081
0.959994
0.943838
0.927617
0.911303
0.894868
0.878292
0.861556
0.84464
0.827528
0.810202
0.79265
0.774858
0.756819
0.738527
0.719981
0.701187
0.682146
0.662873
0.992019
0.975985
0.959836
0.943617
0.927336
0.910963
0.894473
0.877844
0.86106
0.844102
0.826955
0.809601
0.79203
0.77423
0.756195
0.737919
0.719404
0.700656
0.681678
0.662485
0.991998
0.975923
0.959732
0.943471
0.927149
0.910737
0.89421
0.877547
0.860732
0.843747
0.826576
0.809205
0.791622
0.773817
0.755784
0.737521
0.719027
0.70031
0.681375
0.662237
0.991985
0.975892
0.959681
0.943399
0.927056
0.910625
0.894079
0.8774
0.860569
0.84357
0.826387
0.809008
0.791419
0.773612
0.755581
0.737323
0.718841
0.70014
0.68123
0.662128
0.684311
0.652923
0.621154
0.587487
0.552989
0.518634
0.484762
0.451677
0.419687
0.389213
0.68058
0.648056
0.616553
0.584887
0.552494
0.52017
0.488295
0.457096
0.4269
0.398113
0.674889
0.643354
0.612948
0.583176
0.552687
0.522062
0.491815
0.462181
0.433422
0.405808
0.669419
0.639424
0.610222
0.581921
0.553008
0.523826
0.494944
0.466601
0.43901
0.412419
0.664663
0.636098
0.60808
0.580977
0.553373
0.525429
0.497701
0.470447
0.443848
0.418122
0.660587
0.633287
0.606385
0.580288
0.553766
0.526878
0.500135
0.473804
0.44805
0.423062
0.657122
0.630932
0.605034
0.579784
0.554159
0.52817
0.50227
0.476727
0.451697
0.427351
0.654208
0.628977
0.60395
0.579413
0.554533
0.529306
0.504131
0.479266
0.454862
0.431074
0.651775
0.627363
0.603072
0.579132
0.554873
0.530293
0.505741
0.481463
0.457606
0.434311
0.649753
0.626031
0.602352
0.578908
0.555167
0.531137
0.507121
0.483349
0.459968
0.437154
0.648076
0.624931
0.601753
0.578717
0.555409
0.531845
0.508291
0.484955
0.461973
0.439454
0.646691
0.624021
0.601247
0.578541
0.555592
0.532423
0.509267
0.486314
0.4637
0.441551
0.645552
0.623263
0.600808
0.578366
0.555713
0.532878
0.510064
0.487447
0.465158
0.443312
0.644619
0.622627
0.600417
0.578182
0.555769
0.533214
0.510694
0.488369
0.466366
0.444792
0.643862
0.622089
0.600059
0.577979
0.555758
0.533436
0.511166
0.489096
0.467343
0.446011
0.643253
0.621628
0.59972
0.57775
0.555678
0.533547
0.511488
0.489637
0.468104
0.446988
0.642775
0.62123
0.599392
0.577491
0.555529
0.533549
0.511665
0.490001
0.468661
0.447735
0.642411
0.620885
0.599069
0.577202
0.555314
0.533448
0.511706
0.4902
0.469025
0.448264
0.642143
0.62057
0.598727
0.576858
0.555014
0.533233
0.511605
0.490231
0.469202
0.448592
0.641995
0.620313
0.598371
0.576438
0.554587
0.532851
0.511306
0.490043
0.46914
0.448665
)
;

boundaryField
{
    bottom
    {
        type            symmetryPlane;
    }
    right
    {
        type            fixedValue;
        value           uniform 0;
    }
    top
    {
        type            symmetryPlane;
    }
    left
    {
        type            fixedValue;
        value           uniform 1;
    }
    cylinder
    {
        type            zeroGradient;
    }
    defaultFaces
    {
        type            empty;
    }
}


// ************************************************************************* //
