/*--------------------------------*- C++ -*----------------------------------*\
| =========                 |                                                 |
| \\      /  F ield         | OpenFOAM: The Open Source CFD Toolbox           |
|  \\    /   O peration     | Version:  4.1                                   |
|   \\  /    A nd           | Web:      www.OpenFOAM.org                      |
|    \\/     M anipulation  |                                                 |
\*---------------------------------------------------------------------------*/
FoamFile
{
    version     2.0;
    format      ascii;
    class       volScalarField;
    location    "1.8";
    object      p;
}
// * * * * * * * * * * * * * * * * * * * * * * * * * * * * * * * * * * * * * //

dimensions      [0 2 -2 0 0 0 0];

internalField   nonuniform List<scalar> 
2000
(
0.205178
0.212022
0.219011
0.226788
0.234314
0.240583
0.245174
0.248052
0.249178
0.248845
0.207698
0.214965
0.222891
0.231955
0.240881
0.248527
0.254417
0.258473
0.260637
0.261525
0.211736
0.219444
0.228392
0.238825
0.249192
0.258221
0.265397
0.270634
0.27392
0.275991
0.217549
0.225705
0.235743
0.247589
0.259391
0.269758
0.278153
0.2845
0.288841
0.291989
0.225388
0.233986
0.245153
0.258418
0.271608
0.283235
0.292759
0.300131
0.305447
0.309565
0.235483
0.244499
0.256807
0.271451
0.285939
0.298713
0.309251
0.317544
0.323753
0.328747
0.248039
0.257431
0.270855
0.286793
0.302448
0.316227
0.327646
0.336745
0.343757
0.349525
0.263224
0.272928
0.287404
0.304504
0.321159
0.335776
0.347925
0.357705
0.365426
0.371862
0.281159
0.291089
0.306514
0.324599
0.342053
0.357318
0.370033
0.380364
0.388691
0.395671
0.301909
0.311958
0.328187
0.347038
0.365061
0.38077
0.393881
0.404623
0.413444
0.420831
0.211335
0.215828
0.218656
0.220202
0.220171
0.218389
0.21496
0.210122
0.204143
0.197279
0.210921
0.215472
0.218356
0.220011
0.220125
0.218509
0.215255
0.21059
0.20478
0.198069
0.210137
0.214781
0.217794
0.219662
0.220064
0.21878
0.215874
0.211552
0.206079
0.19967
0.209048
0.213827
0.217039
0.21923
0.220062
0.21927
0.216877
0.21306
0.208079
0.202113
0.207752
0.212711
0.216196
0.218821
0.220223
0.220076
0.218349
0.215184
0.210834
0.205443
0.206383
0.211565
0.215401
0.218576
0.220685
0.221324
0.220399
0.218013
0.214417
0.20971
0.205108
0.210553
0.214823
0.218666
0.221611
0.223162
0.223154
0.221652
0.218908
0.214976
0.204122
0.209866
0.214662
0.219293
0.223197
0.225764
0.226753
0.226196
0.224367
0.221265
0.203644
0.209723
0.215143
0.22069
0.225674
0.229354
0.231403
0.231819
0.230865
0.2284
0.203912
0.21036
0.21651
0.223108
0.229305
0.234221
0.237466
0.23901
0.238949
0.236573
0.189726
0.181487
0.172807
0.163811
0.154567
0.145121
0.135515
0.125786
0.115958
0.106054
0.0960883
0.0860753
0.0760251
0.0659463
0.0558451
0.0457257
0.0355868
0.025478
0.0153519
0.00522778
0.190553
0.182335
0.173672
0.164677
0.155418
0.145945
0.136304
0.126531
0.116656
0.1067
0.09668
0.0866097
0.0765005
0.0663617
0.0562018
0.0460309
0.0358653
0.0256483
0.0154466
0.0052589
0.192233
0.18406
0.175423
0.166426
0.157133
0.147604
0.137889
0.12803
0.118059
0.107998
0.0978664
0.08768
0.0774507
0.0671883
0.0569011
0.0465947
0.0362692
0.0259431
0.0156233
0.00531133
0.194787
0.186676
0.17807
0.169059
0.15971
0.150094
0.140267
0.130278
0.120161
0.109943
0.0996458
0.0892858
0.0788767
0.0684288
0.0579498
0.0474447
0.0369169
0.026369
0.0158776
0.00538796
0.198257
0.190222
0.18164
0.172594
0.163162
0.153422
0.143442
0.133276
0.122963
0.112534
0.102013
0.0914209
0.0807721
0.0700799
0.0593558
0.0486114
0.0378596
0.0271126
0.0162902
0.0055085
0.202681
0.194731
0.186154
0.177043
0.167492
0.157591
0.147416
0.137027
0.126469
0.115778
0.104981
0.0941014
0.0831558
0.0721589
0.0611217
0.0500529
0.0389595
0.0278501
0.0167478
0.00563582
0.208098
0.200234
0.191634
0.182416
0.172703
0.162597
0.152178
0.141513
0.130653
0.119639
0.108505
0.0972745
0.0859688
0.074604
0.0631936
0.051749
0.0402796
0.0287912
0.0172662
0.00576237
0.214524
0.206765
0.198103
0.188712
0.178789
0.168442
0.157748
0.146774
0.135579
0.124206
0.112692
0.101066
0.0893493
0.0775612
0.0657164
0.0538269
0.0419022
0.0299514
0.0179891
0.0060645
0.221638
0.214208
0.205553
0.195918
0.185681
0.174986
0.163912
0.152533
0.140913
0.129102
0.117138
0.105053
0.0928724
0.0806166
0.0683016
0.0559404
0.0435437
0.0311213
0.0186802
0.00624587
0.228852
0.222372
0.214159
0.204549
0.194156
0.183206
0.171802
0.160033
0.147975
0.135684
0.123206
0.110575
0.097821
0.0849663
0.0720303
0.0590291
0.0459757
0.0328812
0.019752
0.00660779
0.239938
0.230956
0.221562
0.211091
0.199937
0.188344
0.176393
0.164138
0.151637
0.138938
0.126078
0.113089
0.0999974
0.0868224
0.0735814
0.0602879
0.0469528
0.0335849
0.0201872
0.00676682
0.245009
0.234293
0.223816
0.212762
0.201212
0.189331
0.177174
0.164768
0.152154
0.139367
0.126438
0.113393
0.100253
0.0870357
0.0737554
0.0604242
0.0470515
0.0336444
0.0202076
0.006749
0.249356
0.237765
0.22654
0.214935
0.202961
0.190744
0.178321
0.165706
0.152925
0.140004
0.126965
0.113829
0.100612
0.0873275
0.0739882
0.0606036
0.0471818
0.0337289
0.0202509
0.00674973
0.253493
0.241282
0.229411
0.217279
0.204896
0.192349
0.179659
0.166828
0.153869
0.140799
0.127636
0.114393
0.101083
0.0877166
0.0743038
0.0608521
0.047368
0.0338565
0.0203239
0.00676373
0.257368
0.244602
0.232158
0.219554
0.206796
0.193943
0.180998
0.167956
0.154821
0.141604
0.128316
0.114965
0.101561
0.0881114
0.0746237
0.0611037
0.0475564
0.0339851
0.0203968
0.00677755
0.260931
0.247694
0.234761
0.221746
0.208651
0.195515
0.182329
0.169084
0.155778
0.142415
0.129001
0.115542
0.102043
0.088509
0.0749456
0.0613565
0.0477455
0.0341143
0.0204701
0.00679269
0.264185
0.250557
0.237208
0.223836
0.210442
0.197047
0.183637
0.1702
0.156729
0.143224
0.129687
0.11612
0.102527
0.0889087
0.0752694
0.0616111
0.047936
0.0342448
0.0205447
0.00680956
0.267139
0.253185
0.239482
0.225802
0.212144
0.198516
0.184902
0.171285
0.157658
0.144018
0.130363
0.116692
0.103005
0.0893045
0.0755903
0.0618635
0.0481252
0.0343747
0.0206192
0.00682752
0.269801
0.255576
0.241574
0.22763
0.21374
0.199905
0.186105
0.172325
0.158554
0.144786
0.131018
0.117247
0.103472
0.0896905
0.0759035
0.0621101
0.0483102
0.0345019
0.0206924
0.00684611
0.272184
0.257733
0.243479
0.229309
0.215219
0.201201
0.187236
0.173307
0.159403
0.145518
0.131644
0.117779
0.103919
0.0900617
0.0762051
0.0623478
0.0484887
0.0346248
0.0207634
0.00686492
0.274301
0.259661
0.245196
0.230836
0.216573
0.202396
0.188284
0.174222
0.160198
0.146205
0.132234
0.118282
0.104342
0.0904132
0.0764911
0.0625734
0.0486584
0.0347418
0.0208312
0.00688352
0.276164
0.261368
0.246727
0.232206
0.217796
0.20348
0.18924
0.17506
0.16093
0.146839
0.132781
0.118748
0.104736
0.090741
0.0767581
0.0627844
0.0488171
0.0348515
0.0208948
0.00690152
0.277787
0.262862
0.248075
0.23342
0.218885
0.204451
0.1901
0.175817
0.161593
0.147416
0.133279
0.119174
0.105097
0.0910412
0.077003
0.062978
0.0489631
0.0349525
0.0209536
0.00691854
0.279182
0.26415
0.249243
0.234477
0.219838
0.205304
0.190858
0.176488
0.162181
0.147929
0.133723
0.119555
0.10542
0.0913107
0.0772231
0.0631523
0.0490945
0.0350436
0.0210067
0.00693421
0.280359
0.26524
0.250236
0.235379
0.220654
0.206038
0.191513
0.177068
0.162692
0.148376
0.13411
0.119888
0.105702
0.0915466
0.0774159
0.0633051
0.0492099
0.0351237
0.0210534
0.00694824
0.281326
0.266138
0.251057
0.236128
0.221334
0.20665
0.19206
0.177554
0.163122
0.148752
0.134437
0.120169
0.105941
0.0917465
0.0775796
0.0634349
0.049308
0.0351918
0.0210932
0.00696036
0.282094
0.266851
0.25171
0.236725
0.221878
0.207141
0.1925
0.177946
0.163468
0.149056
0.134702
0.120397
0.106135
0.0919087
0.0777124
0.0635403
0.0493877
0.0352472
0.0211257
0.00697035
0.282666
0.267384
0.252198
0.237172
0.222285
0.207509
0.192831
0.178241
0.163729
0.149285
0.134902
0.120569
0.106282
0.0920316
0.0778131
0.0636203
0.0494482
0.0352894
0.0211503
0.00697804
0.283051
0.26774
0.252524
0.23747
0.222557
0.207755
0.193052
0.178438
0.163904
0.149439
0.135036
0.120685
0.10638
0.0921142
0.0778808
0.0636741
0.0494889
0.0353178
0.021167
0.00698365
0.283262
0.267927
0.252691
0.237621
0.222693
0.207878
0.193162
0.178537
0.163991
0.149516
0.135103
0.120743
0.10643
0.0921556
0.0779148
0.0637011
0.0495093
0.0353321
0.0211748
0.00698873
0.426871
0.401955
0.378264
0.355913
0.334993
0.315539
0.297576
0.281002
0.265875
0.251293
0.431958
0.407691
0.384492
0.36245
0.341645
0.322105
0.303885
0.286851
0.271423
0.25645
0.436443
0.412777
0.390064
0.368374
0.347784
0.328318
0.310067
0.29286
0.277213
0.261767
0.440228
0.417101
0.394794
0.373407
0.353012
0.333631
0.315363
0.29802
0.28212
0.266461
0.443498
0.420819
0.398884
0.377781
0.357578
0.338296
0.320037
0.302627
0.28655
0.270797
0.446305
0.424043
0.402451
0.381615
0.361603
0.342437
0.324214
0.306787
0.290567
0.274741
0.448739
0.426849
0.40557
0.384983
0.365156
0.34611
0.327935
0.310514
0.294181
0.278299
0.450852
0.429298
0.408305
0.38795
0.368298
0.349373
0.331254
0.31385
0.297432
0.281504
0.452689
0.431438
0.410707
0.390568
0.371082
0.352275
0.334215
0.316835
0.30035
0.284378
0.454284
0.433309
0.412819
0.39288
0.37355
0.354857
0.336856
0.319502
0.302962
0.286942
0.455666
0.434944
0.414675
0.394922
0.375738
0.357151
0.339207
0.321876
0.305288
0.289218
0.45686
0.436368
0.416303
0.396723
0.377674
0.359186
0.341296
0.323984
0.307351
0.291224
0.457883
0.437603
0.417726
0.398305
0.379382
0.360984
0.343143
0.325845
0.309166
0.292976
0.458753
0.438667
0.418963
0.399689
0.380882
0.362566
0.344768
0.327477
0.310751
0.294489
0.459482
0.439575
0.42003
0.400891
0.38219
0.363947
0.346185
0.328894
0.312117
0.295775
0.46008
0.440337
0.420938
0.401923
0.383318
0.365141
0.347407
0.330109
0.313276
0.296846
0.460556
0.440962
0.421698
0.402795
0.384277
0.366157
0.348444
0.331132
0.314238
0.29771
0.460915
0.441457
0.422314
0.403514
0.385073
0.367001
0.349302
0.331968
0.315007
0.298374
0.461167
0.441833
0.422801
0.404092
0.385718
0.367685
0.349991
0.332628
0.315593
0.298846
0.461296
0.442089
0.42317
0.404555
0.38625
0.368254
0.350562
0.333159
0.316039
0.299159
0.697505
0.693737
0.687459
0.680269
0.672343
0.663366
0.653056
0.641627
0.631112
0.62835
0.673266
0.668024
0.660219
0.651985
0.64303
0.632759
0.620883
0.607729
0.595518
0.59139
0.647064
0.640703
0.632027
0.622954
0.612957
0.601386
0.58799
0.573208
0.55942
0.554031
0.61901
0.612063
0.602949
0.593233
0.582315
0.569568
0.554797
0.538569
0.523374
0.516875
0.590187
0.582822
0.573407
0.563157
0.551447
0.537684
0.521728
0.504291
0.48791
0.480488
0.561072
0.553381
0.543768
0.533096
0.520733
0.506127
0.489198
0.4708
0.45356
0.445356
0.531949
0.524039
0.514344
0.503383
0.490521
0.475267
0.457602
0.438354
0.420897
0.411971
0.503108
0.495095
0.485441
0.474328
0.461131
0.44543
0.427199
0.407636
0.390191
0.380697
0.474821
0.466837
0.457343
0.446237
0.432868
0.416924
0.398509
0.378907
0.36165
0.35179
0.447261
0.43955
0.430346
0.419338
0.406006
0.390069
0.371727
0.352362
0.335512
0.325477
0.8508
0.847406
0.844799
0.843067
0.842246
0.842348
0.843301
0.844885
0.847589
0.855211
0.847995
0.844419
0.841705
0.839843
0.838846
0.838728
0.839417
0.84069
0.843037
0.850459
0.842387
0.838463
0.83554
0.833421
0.832076
0.83152
0.831676
0.83233
0.834036
0.840972
0.833992
0.829579
0.826358
0.823862
0.822008
0.820813
0.820186
0.819935
0.820715
0.826924
0.822842
0.817831
0.814238
0.811256
0.808746
0.806727
0.805094
0.803676
0.803268
0.808543
0.808973
0.803294
0.799276
0.795718
0.792426
0.789424
0.78659
0.783782
0.78196
0.786123
0.792474
0.786083
0.781613
0.777404
0.773226
0.769112
0.764917
0.760539
0.757124
0.760029
0.77331
0.766247
0.761362
0.756475
0.751347
0.746033
0.740364
0.734286
0.729148
0.730691
0.751722
0.744044
0.738803
0.733184
0.72705
0.720483
0.713271
0.705415
0.698482
0.698597
0.726527
0.719527
0.714112
0.707737
0.700622
0.692808
0.68403
0.674369
0.665624
0.66429
0.995568
0.986807
0.978147
0.969531
0.960962
0.952465
0.944059
0.935763
0.927588
0.919566
0.911736
0.904121
0.896746
0.889639
0.882836
0.876374
0.870292
0.864636
0.859449
0.854786
0.995527
0.986685
0.977937
0.969231
0.960572
0.951981
0.943479
0.935085
0.926806
0.918686
0.910751
0.903023
0.895524
0.888283
0.881334
0.874711
0.86845
0.862592
0.857175
0.852246
0.99545
0.986442
0.97752
0.968641
0.959806
0.951038
0.942353
0.933765
0.925273
0.916946
0.908797
0.900837
0.893089
0.88558
0.878338
0.871391
0.86477
0.858507
0.852628
0.847163
0.995332
0.986072
0.976887
0.96774
0.958634
0.949589
0.940624
0.931747
0.922969
0.914342
0.905868
0.897562
0.889446
0.881539
0.873861
0.866434
0.859276
0.852407
0.845834
0.839541
0.995176
0.985585
0.976059
0.966571
0.957121
0.947722
0.938381
0.929076
0.919938
0.910917
0.902015
0.893252
0.884646
0.876209
0.867952
0.859885
0.852011
0.844332
0.836829
0.829399
0.994976
0.984965
0.975
0.965064
0.95516
0.945303
0.935494
0.925755
0.916145
0.906621
0.897188
0.887864
0.878655
0.869566
0.860594
0.851735
0.842973
0.834285
0.825633
0.81675
0.994745
0.984255
0.973805
0.963387
0.953005
0.94265
0.932214
0.921962
0.911783
0.901653
0.891588
0.881594
0.871668
0.861801
0.851978
0.842172
0.832344
0.822434
0.812395
0.801696
0.994449
0.983346
0.972262
0.961207
0.950147
0.939044
0.928171
0.917322
0.906479
0.89566
0.884872
0.874107
0.863352
0.852583
0.841769
0.830862
0.819798
0.808478
0.796878
0.784109
0.994192
0.982559
0.970911
0.959149
0.947443
0.935875
0.924307
0.912727
0.901148
0.889574
0.877992
0.866386
0.854729
0.842984
0.831098
0.818992
0.80656
0.793624
0.780154
0.764694
0.993706
0.981097
0.968503
0.956048
0.943608
0.931164
0.918722
0.906274
0.893809
0.881312
0.868762
0.856128
0.843366
0.830416
0.817194
0.80359
0.789462
0.774608
0.759007
0.741068
0.993531
0.980589
0.96764
0.954679
0.941694
0.928689
0.915658
0.902583
0.889445
0.876219
0.862874
0.849365
0.835632
0.821599
0.807159
0.792175
0.776455
0.759694
0.741492
0.720427
0.993413
0.980235
0.967046
0.95384
0.940609
0.927345
0.914031
0.90065
0.88718
0.873593
0.859854
0.845917
0.831723
0.817194
0.802232
0.786707
0.770456
0.753258
0.734903
0.715006
0.993306
0.979904
0.966482
0.953039
0.939565
0.926044
0.912459
0.898791
0.885015
0.871104
0.85702
0.842717
0.82814
0.813216
0.797859
0.78196
0.765392
0.748007
0.729646
0.710137
0.993199
0.979572
0.965915
0.952232
0.938509
0.924728
0.910872
0.896918
0.882842
0.868614
0.854199
0.839551
0.824619
0.809337
0.793632
0.777413
0.760581
0.743031
0.72463
0.705318
0.993093
0.979246
0.965363
0.951448
0.937487
0.92346
0.909348
0.895129
0.880777
0.866262
0.85155
0.8366
0.821364
0.805785
0.789799
0.773334
0.756311
0.738657
0.72027
0.701147
0.992991
0.978934
0.964834
0.950699
0.936513
0.922257
0.907908
0.893445
0.878843
0.864074
0.849103
0.833893
0.818403
0.802582
0.786377
0.769731
0.752581
0.734877
0.716538
0.697582
0.992894
0.978638
0.964333
0.94999
0.935594
0.921124
0.906557
0.891873
0.877045
0.862049
0.846852
0.83142
0.815717
0.799699
0.783323
0.766543
0.74931
0.731587
0.713312
0.694507
0.992802
0.978358
0.963861
0.949325
0.934734
0.920067
0.905301
0.890415
0.875387
0.86019
0.844796
0.829175
0.813294
0.797117
0.780608
0.763729
0.746443
0.728723
0.71052
0.69186
0.992717
0.978098
0.963423
0.948708
0.933938
0.91909
0.904144
0.889078
0.873871
0.858498
0.842935
0.827153
0.811124
0.794819
0.778206
0.761256
0.74394
0.726239
0.708114
0.689591
0.992638
0.977858
0.96302
0.948141
0.933208
0.918197
0.903089
0.887862
0.872497
0.856972
0.841262
0.825345
0.809195
0.792786
0.776093
0.759094
0.741765
0.724092
0.706046
0.687653
0.992565
0.977639
0.962653
0.947626
0.932546
0.917389
0.902136
0.886768
0.871265
0.855607
0.839773
0.823742
0.807491
0.791
0.774247
0.757214
0.739883
0.722245
0.704278
0.686005
0.9925
0.977442
0.962323
0.947164
0.931953
0.916666
0.901286
0.885793
0.870171
0.854399
0.83846
0.822333
0.806001
0.789444
0.772646
0.755591
0.738266
0.720666
0.702774
0.68461
0.992442
0.977267
0.962031
0.946755
0.931428
0.916028
0.900537
0.884937
0.869212
0.853343
0.837315
0.82111
0.804711
0.788102
0.77127
0.754203
0.73689
0.719327
0.701505
0.683439
0.992391
0.977114
0.961776
0.946399
0.930972
0.915474
0.899887
0.884196
0.868383
0.852434
0.836332
0.820062
0.80361
0.786961
0.770104
0.75303
0.735731
0.718205
0.700445
0.682466
0.992348
0.976984
0.961558
0.946095
0.930583
0.915002
0.899335
0.883567
0.867682
0.851666
0.835504
0.819181
0.802686
0.786007
0.769132
0.752056
0.734771
0.717279
0.699574
0.68167
0.992311
0.976875
0.961377
0.945843
0.930261
0.914612
0.898879
0.883048
0.867105
0.851034
0.834824
0.81846
0.801932
0.785228
0.768342
0.751265
0.733995
0.716532
0.698875
0.681033
0.992282
0.976789
0.961233
0.945642
0.930005
0.914302
0.898517
0.882637
0.866647
0.850534
0.834286
0.817891
0.801338
0.784617
0.767722
0.750647
0.73339
0.715951
0.698332
0.680541
0.992261
0.976724
0.961126
0.945492
0.929814
0.914071
0.898247
0.88233
0.866306
0.850163
0.833887
0.817469
0.800898
0.784165
0.767264
0.750192
0.732945
0.715525
0.697936
0.680183
0.992246
0.976681
0.961055
0.945393
0.929687
0.913917
0.898068
0.882127
0.86608
0.849916
0.833623
0.81719
0.800607
0.783867
0.766963
0.749892
0.732652
0.715246
0.697677
0.679951
0.992238
0.97666
0.96102
0.945344
0.929623
0.91384
0.897978
0.882025
0.865968
0.849794
0.833492
0.817051
0.800463
0.783719
0.766813
0.749743
0.732508
0.715108
0.697551
0.679841
0.697526
0.67267
0.647104
0.620049
0.592147
0.563928
0.535642
0.507543
0.479888
0.452924
0.694087
0.668258
0.642876
0.617035
0.590419
0.563483
0.536479
0.509605
0.483088
0.457167
0.689457
0.664169
0.639528
0.614832
0.589336
0.563448
0.537473
0.511596
0.486033
0.461064
0.685098
0.660687
0.636795
0.612995
0.588434
0.563437
0.538332
0.513283
0.488449
0.463963
0.681271
0.657684
0.634496
0.611428
0.58765
0.563418
0.539054
0.514718
0.490566
0.466777
0.677941
0.655096
0.632554
0.610092
0.586972
0.563394
0.539667
0.515946
0.492374
0.469104
0.675066
0.652875
0.630899
0.608942
0.586371
0.563356
0.540177
0.516989
0.493923
0.471121
0.672603
0.650975
0.629479
0.60794
0.585832
0.563298
0.540595
0.51787
0.495249
0.472863
0.670501
0.649349
0.628251
0.607058
0.585338
0.563218
0.540928
0.518609
0.49638
0.474364
0.668714
0.647957
0.627183
0.606273
0.584879
0.563113
0.541183
0.519221
0.49734
0.475655
0.667197
0.646764
0.626248
0.605566
0.584445
0.562984
0.541367
0.51972
0.498148
0.476761
0.665914
0.645738
0.625423
0.604923
0.584029
0.562829
0.541486
0.520117
0.498822
0.477703
0.664833
0.644856
0.624692
0.604334
0.583627
0.562649
0.541544
0.52042
0.499373
0.478497
0.663928
0.644095
0.624038
0.603787
0.583232
0.562443
0.541545
0.520639
0.499814
0.479157
0.663177
0.643439
0.623452
0.603276
0.582843
0.562211
0.541492
0.520778
0.500152
0.479695
0.662563
0.642874
0.622921
0.602794
0.582454
0.561954
0.541389
0.520844
0.500396
0.480118
0.662072
0.642388
0.62244
0.602337
0.582065
0.561671
0.541236
0.520839
0.50055
0.480435
0.661695
0.641977
0.622005
0.601903
0.581677
0.561364
0.541038
0.520768
0.500619
0.48065
0.661417
0.641624
0.621603
0.601484
0.581282
0.561032
0.540795
0.520636
0.500611
0.480773
0.661244
0.641326
0.621199
0.601018
0.580809
0.560597
0.540435
0.520378
0.500474
0.480767
)
;

boundaryField
{
    bottom
    {
        type            symmetryPlane;
    }
    right
    {
        type            fixedValue;
        value           uniform 0;
    }
    top
    {
        type            symmetryPlane;
    }
    left
    {
        type            fixedValue;
        value           uniform 1;
    }
    cylinder
    {
        type            zeroGradient;
    }
    defaultFaces
    {
        type            empty;
    }
}


// ************************************************************************* //
