/*--------------------------------*- C++ -*----------------------------------*\
| =========                 |                                                 |
| \\      /  F ield         | OpenFOAM: The Open Source CFD Toolbox           |
|  \\    /   O peration     | Version:  4.1                                   |
|   \\  /    A nd           | Web:      www.OpenFOAM.org                      |
|    \\/     M anipulation  |                                                 |
\*---------------------------------------------------------------------------*/
FoamFile
{
    version     2.0;
    format      ascii;
    class       surfaceScalarField;
    location    "1.8";
    object      phi;
}
// * * * * * * * * * * * * * * * * * * * * * * * * * * * * * * * * * * * * * //

dimensions      [0 3 -1 0 0 0 0];

internalField   nonuniform List<scalar> 
3890
(
0.000563587
-0.00464894
0.00408535
0.0018171
-0.0119218
0.0106683
0.00344766
-0.0171893
0.0155587
0.00523652
-0.0206466
0.0188577
0.00704817
-0.0226569
0.0208453
0.00881086
-0.0236178
0.0218551
0.010493
-0.023881
0.0221988
0.0120861
-0.0237217
0.0221287
0.0136035
-0.0233487
0.0218314
-0.0229288
0.0214771
0.0150553
0.000588148
-0.00523708
0.00185188
-0.0131855
0.00345033
-0.0187878
0.00515993
-0.0223562
0.00685339
-0.0243504
0.00847284
-0.0252373
0.0100028
-0.025411
0.0114503
-0.0251692
0.0128281
-0.0247266
-0.0242372
0.0141365
0.000607256
-0.00584434
0.00186661
-0.0144449
0.00341314
-0.0203343
0.00502256
-0.0239656
0.00657872
-0.0259065
0.00803792
-0.0266965
0.00939707
-0.0267701
0.0106709
-0.026443
0.0118755
-0.0259312
-0.0253766
0.0130149
0.000619497
-0.00646384
0.00185775
-0.0156831
0.00333116
-0.0218077
0.00481971
-0.0254541
0.00622166
-0.0273085
0.00750891
-0.0279837
0.00869059
-0.0279518
0.00978908
-0.0275415
0.0108254
-0.0269675
-0.0263605
0.0118093
0.00062346
-0.0070873
0.00182206
-0.0168817
0.00320014
-0.0231858
0.00454717
-0.0268012
0.00577856
-0.0285399
0.0068822
-0.0290873
0.00787869
-0.0289483
0.00879734
-0.0284602
0.00966289
-0.0278331
-0.0271854
0.0104877
0.000617831
-0.00770513
0.00175684
-0.0180207
0.00301725
-0.0244462
0.00420324
-0.0279872
0.00524949
-0.0295861
0.00615972
-0.0299976
0.00696468
-0.0297532
0.00769891
-0.0291944
0.0083893
-0.0285235
-0.027846
0.00904989
0.000601469
-0.0083066
0.00166023
-0.0190795
0.00278128
-0.0255672
0.00378846
-0.0289943
0.00463716
-0.0304348
0.00534617
-0.0307066
0.00595478
-0.0303619
0.00650115
-0.0297408
0.00701305
-0.0290354
-0.0283381
0.00750519
0.000573492
-0.00888009
0.00153131
-0.0200373
0.00249275
-0.0265287
0.00330573
-0.0298073
0.00394707
-0.0310762
0.00444927
-0.0312088
0.00485833
-0.0307709
0.0052144
-0.0300968
0.00554501
-0.029366
-0.0286579
0.00586482
0.000533345
-0.00941344
0.00137017
-0.0208741
0.00215388
-0.0273124
0.00276005
-0.0304135
0.00318695
-0.0315031
0.00347905
-0.0315009
0.00368713
-0.030979
0.00385188
-0.0302616
0.00399971
-0.0295138
-0.0288024
0.00414426
0.000480852
-0.00989429
0.001178
-0.0215713
0.00176836
-0.0279028
0.00215813
-0.0308032
0.00236622
-0.0317112
0.00244707
-0.0315817
0.00245427
-0.0309862
0.00242755
-0.0302349
0.00239182
-0.0294781
0.00236206
-0.0287727
0.000321721
-0.000321721
0.00126166
-0.000939939
0.00272052
-0.00145886
0.00457574
-0.00185523
0.00670652
-0.00213077
0.00900764
-0.00230112
0.0113951
-0.00238749
0.0138063
-0.0024112
0.0161965
-0.00239019
-0.00233336
0.0185299
0.00032837
-0.000650091
0.00127744
-0.00188901
0.00274561
-0.00292702
0.00460647
-0.0037161
0.00673815
-0.00426245
0.00903565
-0.00459862
0.0114156
-0.00476746
0.0138163
-0.00481192
0.0161941
-0.00476797
-0.00465391
0.0185147
0.000340207
-0.000990298
0.00130891
-0.00285771
0.00279456
-0.00441268
0.00466605
-0.00558758
0.00679924
-0.00639565
0.00908911
-0.00688849
0.0114537
-0.00713207
0.0138333
-0.00719146
0.0161861
-0.00712078
-0.00694837
0.0184805
0.00035785
-0.00134815
0.00135475
-0.00385461
0.00286526
-0.00592319
0.00475076
-0.00747308
0.0068842
-0.00852909
0.00916095
-0.00916525
0.0115015
-0.0094726
0.0138491
-0.00953907
0.0161652
-0.00943684
-0.00920488
0.0184217
0.000380729
-0.00172888
0.00141319
-0.00488708
0.00295376
-0.00746376
0.00485418
-0.0093735
0.00698403
-0.0106589
0.00923984
-0.0114211
0.0115459
-0.0117787
0.0138501
-0.0118433
0.0161179
-0.0117046
-0.011412
0.018325
0.000408033
-0.00213691
0.00148143
-0.00596048
0.00305435
-0.00903667
0.00496712
-0.0112863
0.00708595
-0.0127778
0.00930967
-0.0136448
0.0115682
-0.0140372
0.0138161
-0.0140912
0.0160241
-0.0139126
-0.0135591
0.0181712
0.000438633
-0.00257554
0.00155568
-0.00707753
0.00315951
-0.0106405
0.00507791
-0.0132047
0.00717414
-0.014874
0.00935073
-0.0158214
0.0115452
-0.0162316
0.013721
-0.0162671
0.015857
-0.0160486
-0.0156383
0.0179362
0.000471078
-0.00304662
0.00163126
-0.00823772
0.00326029
-0.0122695
0.00517299
-0.0151174
0.0072307
-0.0169317
0.00934135
-0.017932
0.0114518
-0.0183421
0.0135369
-0.0183522
0.0155862
-0.0180979
-0.0176428
0.0175907
0.000503725
-0.00355035
0.00170303
-0.00943703
0.00334706
-0.0139136
0.00523791
-0.0170082
0.00723637
-0.0189302
0.0092573
-0.019953
0.0112588
-0.0203435
0.0132299
-0.0203233
0.0151783
-0.0200463
-0.0195642
0.0170997
0.000535004
0.00176625
0.00341144
0.00526092
0.00717603
0.0090782
0.0109335
0.0127388
0.0145239
0.0164367
0.0197353
-0.00120545
0.0207757
-0.00104034
0.0216695
-0.000893822
0.0224345
-0.000765025
0.0230866
-0.000652041
0.0236395
-0.00055291
0.0241053
-0.00046589
0.0244948
-0.000389475
0.0248172
-0.000322349
0.0250805
-0.00026334
0.0252919
-0.000211404
0.0254575
-0.000165593
0.0255826
-0.000125048
0.0256715
-8.89751e-05
0.0257282
-5.66287e-05
0.0257554
-2.72141e-05
0.0257543
1.05749e-06
0.0257335
2.08405e-05
0.0256929
4.05249e-05
5.7921e-05
0.0197022
-0.00239299
0.0207309
-0.00206904
0.0216177
-0.00178062
0.0223791
-0.00152643
0.0230301
-0.00130301
0.0235839
-0.00110668
0.0240521
-0.000934145
0.0244451
-0.000782498
0.024772
-0.000649186
0.0250406
-0.000531925
0.0252578
-0.000428663
0.0254298
-0.000337543
0.0255616
-0.000256873
0.0256577
-0.000185105
0.0257219
-0.000120785
0.025757
-6.23661e-05
0.0257642
-6.13332e-06
0.0257504
3.46754e-05
0.0257172
7.36925e-05
0.000108781
0.0196337
-0.00354621
0.0206399
-0.00307519
0.021513
-0.00265369
0.0222673
-0.00228074
0.0229162
-0.00195189
0.0234717
-0.0016622
0.0239447
-0.00140713
0.0243448
-0.00118262
0.0246806
-0.000985018
0.0249597
-0.000811023
0.0251887
-0.00065766
0.0253734
-0.000522222
0.0255187
-0.000402227
0.025629
-0.000295397
0.0257078
-0.000199599
0.0257582
-0.000112713
0.0257837
-3.16523e-05
0.0257836
3.47474e-05
0.0257649
9.24316e-05
0.00014506
0.0195249
-0.00464943
0.0204984
-0.00404867
0.0213515
-0.00350685
0.0220955
-0.00302473
0.0227414
-0.00259778
0.0232996
-0.00222042
0.0237798
-0.00188732
0.0241907
-0.00159352
0.0245402
-0.00133446
0.0248351
-0.00110601
0.0250818
-0.000904363
0.0252857
-0.000726076
0.0254514
-0.000567966
0.0255832
-0.000427131
0.0256845
-0.000300923
0.0257586
-0.000186852
0.025809
-8.20272e-05
0.0258298
1.39334e-05
0.0258341
8.81616e-05
0.00015884
0.0193651
-0.00568953
0.0202975
-0.00498111
0.0211259
-0.00433521
0.0218573
-0.00375619
0.0225001
-0.0032406
0.0230628
-0.00278304
0.0235533
-0.00237782
0.0239792
-0.00201941
0.0243473
-0.00170262
0.0246639
-0.00142264
0.0249346
-0.00117506
0.0251644
-0.000955811
0.0253575
-0.000761115
0.0255179
-0.000587514
0.0256488
-0.000431842
0.0257532
-0.000291171
0.0258338
-0.000162655
0.0258903
-4.254e-05
0.0259229
5.55586e-05
0.000143035
0.0191378
-0.00665611
0.0200228
-0.00586612
0.0208235
-0.0051359
0.021542
-0.00447466
0.0221832
-0.0038818
0.0227532
-0.00335307
0.0232583
-0.00288289
0.0237043
-0.00246547
0.024097
-0.0020953
0.0244416
-0.00176722
0.0247429
-0.0014764
0.0250055
-0.00121832
0.0252331
-0.000988734
0.0254293
-0.000783736
0.0255972
-0.000599775
0.0257397
-0.000433678
0.0258597
-0.000282629
0.0259612
-0.00014407
0.026028
-1.11627e-05
8.95237e-05
0.018822
-0.0075419
0.0196551
-0.00669922
0.0204277
-0.0059085
0.0211355
-0.00518246
0.0217794
-0.00452568
0.0223626
-0.00393625
0.0228888
-0.00340909
0.023362
-0.00293868
0.0237863
-0.00251967
0.0241661
-0.00214695
0.0245053
-0.00181559
0.0248078
-0.00152083
0.0250771
-0.00125811
0.0253166
-0.00102315
0.0255288
-0.000812025
0.0257163
-0.000621145
0.0258809
-0.000447306
0.0260247
-0.000287814
0.0261545
-0.000141009
-3.20075e-07
0.0183943
-0.00834544
0.0191743
-0.00747929
0.0199208
-0.00665492
0.0206216
-0.00588325
0.0212737
-0.00517778
0.0218771
-0.00453966
0.0224325
-0.00396455
0.0229415
-0.00344769
0.0234064
-0.00298455
0.0238301
-0.00257061
0.0242157
-0.00220124
0.0245667
-0.00187177
0.0248861
-0.00157753
0.0251769
-0.00131399
0.0254418
-0.00107691
0.025683
-0.000862376
0.0259026
-0.000666859
0.026102
-0.000487233
0.0262819
-0.000320961
-0.000164215
0.0178202
-0.00906594
0.0185605
-0.00821957
0.0192945
-0.00738896
0.0200007
-0.00658938
0.0206716
-0.00584875
0.0213044
-0.00517239
0.0218973
-0.00455745
0.0224499
-0.00400029
0.0229628
-0.00349745
0.0234376
-0.00304542
0.0238766
-0.0026403
0.0242827
-0.00227783
0.0246586
-0.00195347
0.0250073
-0.00166262
0.0253312
-0.00140081
0.0256326
-0.00116384
0.0259136
-0.000947859
0.0261757
-0.000749298
0.0264198
-0.000565096
-0.000386849
0.0170901
-0.00971935
0.0177878
-0.00891727
0.0185042
-0.00810533
0.019222
-0.00730719
0.0199239
-0.00655064
0.0205999
-0.00584842
0.0212448
-0.00520234
0.0218555
-0.00461097
0.0224306
-0.00407253
0.0229702
-0.00358502
0.0234757
-0.00314582
0.0239494
-0.00275146
0.0243937
-0.00239781
0.0248114
-0.00208037
0.0252052
-0.00179457
0.0255774
-0.001536
0.02593
-0.00130052
0.026265
-0.0010843
0.026584
-0.000884101
-0.000687661
0.0281922
-0.0084872
-0.0294244
0.0272542
-0.00797925
0.0265194
-0.00737055
0.0259605
-0.00674827
0.025546
-0.00613611
0.0252438
-0.00554626
0.0250278
-0.00498628
0.0248771
-0.00446033
0.0247757
-0.00397113
0.024711
-0.00352029
0.0246733
-0.00310809
0.0246551
-0.00273332
0.0246509
-0.00239357
0.0246562
-0.00208567
0.0246677
-0.00180609
0.0246829
-0.00155122
0.0247
-0.0013176
0.0247177
-0.001102
0.0247358
-0.000902164
-0.000706279
0.0288338
-0.00749949
-0.0298215
0.027966
-0.00711141
0.0272463
-0.00665088
0.0266618
-0.00616377
0.0261983
-0.00567258
0.0258384
-0.0051864
0.0255639
-0.00471173
0.0253578
-0.0042543
0.0252059
-0.00381921
0.0250961
-0.00341049
0.0250187
-0.00303066
0.0249658
-0.00268046
0.0249314
-0.00235912
0.0249105
-0.00206482
0.0248995
-0.00179509
0.0248955
-0.00154723
0.0248964
-0.00131847
0.0249006
-0.00110616
0.024907
-0.000908585
-0.000712836
0.0291908
-0.00662477
-0.0300655
0.028415
-0.00633565
0.0277493
-0.00598514
0.0271885
-0.00560296
0.0267236
-0.00520771
0.0263445
-0.00480731
0.02604
-0.00440719
0.0257988
-0.00401308
0.0256102
-0.0036307
0.0254648
-0.00326509
0.0253541
-0.00291992
0.0252708
-0.00259721
0.0252091
-0.0022974
0.0251641
-0.00201981
0.025132
-0.00176293
0.0251096
-0.00152488
0.0250947
-0.00130358
0.0250854
-0.00109687
0.0250803
-0.000903439
-0.000709975
0.0294368
-0.00584203
-0.0302196
0.0287375
-0.00563637
0.0281259
-0.00537349
0.0275982
-0.00507529
0.0271479
-0.00475739
0.026768
-0.0044274
0.0264514
-0.00409057
0.0261907
-0.00375237
0.0259785
-0.00341853
0.0258077
-0.00309427
0.0256714
-0.0027837
0.0255637
-0.00248947
0.0254792
-0.00221285
0.0254133
-0.00195394
0.0253624
-0.00171205
0.0253235
-0.00148598
0.0252942
-0.00127424
0.0252725
-0.00107518
0.0252569
-0.000887902
-0.000699099
0.0296155
-0.0051423
-0.0303152
0.0289835
-0.00500439
0.028421
-0.00481102
0.0279262
-0.00458043
0.0274947
-0.00432589
0.0271218
-0.00405455
0.0268028
-0.00377159
0.0265328
-0.00348231
0.0263065
-0.00319222
0.0261186
-0.00290641
0.0259639
-0.00262903
0.0258375
-0.00236301
0.0257347
-0.00211007
0.0256517
-0.00187089
0.0255849
-0.00164535
0.0255318
-0.00143281
0.0254898
-0.00123228
0.0254572
-0.00104254
0.0254324
-0.0008631
-0.00068077
0.0297422
-0.00451943
-0.030365
0.0291707
-0.00443296
0.0286536
-0.00429391
0.0281907
-0.00411752
0.0277798
-0.00391501
0.0274181
-0.00369282
0.0271024
-0.00345591
0.0268295
-0.00320937
0.0265956
-0.00295838
0.026397
-0.00270777
0.0262295
-0.00246155
0.0260892
-0.00222273
0.0259724
-0.00199324
0.0258756
-0.00177412
0.025796
-0.00156567
0.0257308
-0.00136767
0.0256781
-0.00117955
0.025636
-0.00100044
0.0256031
-0.000830186
-0.000655869
0.0298269
-0.00396494
-0.0303814
0.0293103
-0.00391631
0.0288354
-0.00381903
0.0284036
-0.0036857
0.0280143
-0.0035257
0.0276661
-0.00334464
0.0273573
-0.00314711
0.0270858
-0.00293784
0.026849
-0.00272165
0.0266442
-0.00250299
0.0264684
-0.00228567
0.0263183
-0.00207262
0.0261909
-0.00186587
0.0260834
-0.00166667
0.0259934
-0.00147559
0.0259184
-0.00129273
0.0258567
-0.00111783
0.0258066
-0.00095033
0.0257667
-0.000790329
-0.000625322
0.029879
-0.00347033
-0.0303736
0.0294115
-0.00344882
0.0289757
-0.00338317
0.0285737
-0.00328372
0.0282062
-0.00315824
0.0278731
-0.00301147
0.0275735
-0.00284751
0.0273063
-0.00267067
0.0270699
-0.0024853
0.0268624
-0.00229548
0.0266815
-0.00210474
0.0265247
-0.00191586
0.0263897
-0.00173088
0.0262742
-0.00155113
0.026176
-0.00137737
0.0260932
-0.00120992
0.0260241
-0.00104876
0.0259673
-0.000893559
0.0259216
-0.000744627
-0.00058998
0.0299062
-0.0030277
-0.0303488
0.0294824
-0.00302504
0.0290822
-0.00298296
0.0287085
-0.00290995
0.0283625
-0.0028123
0.028045
-0.00269398
0.0277561
-0.00255855
0.0274952
-0.00240981
0.0272615
-0.00225165
0.0270538
-0.00208776
0.0268704
-0.00192132
0.0267095
-0.00175496
0.0265692
-0.00159061
0.0264478
-0.00142965
0.0263433
-0.00127294
0.0262543
-0.00112094
0.0261794
-0.000973786
0.0261171
-0.000831346
0.0260666
-0.000694079
-0.000550627
0.0299151
-0.00262987
-0.030313
0.0295299
-0.00263977
0.0291619
-0.00261496
0.0288143
-0.00256236
0.028489
-0.00248702
0.0281872
-0.0023922
0.0279096
-0.00228091
0.0276562
-0.00215646
0.0274269
-0.00202228
0.0272207
-0.0018816
0.0270367
-0.00173733
0.0268736
-0.00159182
0.0267299
-0.00144693
0.0266042
-0.00130399
0.0264952
-0.0011639
0.0264015
-0.00102721
0.0263218
-0.000894161
0.0262553
-0.000764763
0.0262008
-0.000639578
-0.000507969
0.0299112
-0.00227043
-0.0302706
0.0295595
-0.00228815
0.0292203
-0.00227571
0.0288966
-0.0022387
0.0285907
-0.00218114
0.0283042
-0.00210565
0.028038
-0.00201474
0.0277928
-0.00191125
0.0275687
-0.00179814
0.0273653
-0.00167824
0.0271821
-0.00155412
0.0270182
-0.0014279
0.0268725
-0.00130129
0.0267441
-0.00117555
0.0266318
-0.00105156
0.0265345
-0.000929919
0.0264513
-0.000810947
0.0263812
-0.000694733
0.0263236
-0.000581902
-0.000462634
0.0298987
-0.00194369
-0.0302254
0.0295762
-0.00196569
0.0292623
-0.00196181
0.0289601
-0.00193655
0.0286721
-0.00189307
0.0283999
-0.00183344
0.0281448
-0.00175972
0.0279079
-0.00167431
0.0276895
-0.00157972
0.0274897
-0.00147842
0.0273082
-0.00137263
0.0271445
-0.00126424
0.026998
-0.00115478
0.0268678
-0.0010454
0.0267532
-0.000936963
0.0266534
-0.000830051
0.0265675
-0.000725026
0.0264948
-0.000622036
0.0264346
-0.000521723
-0.000415164
0.0298811
-0.00164458
-0.0301802
0.0295836
-0.00166821
0.0292918
-0.00166996
0.0290086
-0.00165342
0.0287366
-0.00162103
0.0284775
-0.00157439
0.028233
-0.00151518
0.0280041
-0.00144539
0.0277915
-0.00136714
0.0275956
-0.00128252
0.0274164
-0.00119344
0.0272537
-0.00110154
0.0271071
-0.00100816
0.026976
-0.000914361
0.02686
-0.000820913
0.0267583
-0.000728376
0.0266704
-0.000637118
0.0265957
-0.000547318
0.0265336
-0.000459605
-0.00036602
0.0298611
-0.00136857
-0.0301371
0.0295848
-0.00139189
0.0293118
-0.00139703
0.0290452
-0.00138682
0.0287873
-0.00136311
0.0285401
-0.00132712
0.0283051
-0.0012802
0.0280836
-0.00122396
0.0278767
-0.00116018
0.0276847
-0.00109058
0.0275081
-0.00101679
0.0273468
-0.000940204
0.0272006
-0.000861973
0.0270692
-0.000783011
0.0269523
-0.000704016
0.0268495
-0.000625492
0.0267601
-0.000547792
0.0266839
-0.000471103
0.0266203
-0.000396013
-0.00031559
0.0298407
-0.00111161
-0.0300977
0.029582
-0.0011332
0.029325
-0.00114004
0.0290725
-0.0011343
0.0288268
-0.00111736
0.0285898
-0.00109013
0.0283632
-0.00105367
0.0281486
-0.00100928
0.0279468
-0.000958387
0.0277586
-0.000902426
0.0275845
-0.000842719
0.0274248
-0.000780424
0.0272793
-0.000716505
0.027148
-0.000651731
0.0270307
-0.000586697
0.026927
-0.000521845
0.0268367
-0.000457489
0.0267594
-0.000393809
0.0266948
-0.000331326
-0.00026419
0.0298215
-0.000870103
-0.030063
0.0295772
-0.000888952
0.0293334
-0.000896195
0.0290926
-0.000893468
0.028857
-0.000881779
0.0286287
-0.000861795
0.0284093
-0.000834325
0.0282004
-0.000800393
0.0280032
-0.000761126
0.0278184
-0.000717656
0.0276467
-0.000671036
0.0274885
-0.000622188
0.0273439
-0.000571882
0.0272129
-0.000520737
0.0270954
-0.000469239
0.0269913
-0.00041775
0.0269004
-0.000366536
0.0268223
-0.000315757
0.0267568
-0.000265844
-0.000212081
0.0298046
-0.000640835
-0.0300338
0.0295718
-0.000656231
0.0293385
-0.000662886
0.0291071
-0.000662018
0.0288797
-0.000654367
0.0286583
-0.000640424
0.0284448
-0.00062079
0.0282406
-0.00059623
0.0280471
-0.000567592
0.0278651
-0.000535721
0.0276955
-0.000501405
0.0275386
-0.000465332
0.0273948
-0.00042808
0.0272642
-0.000390114
0.0271468
-0.000351801
0.0270424
-0.000313418
0.0269511
-0.000275172
0.0268725
-0.000237191
0.0268065
-0.000199802
-0.000159471
0.0297909
-0.000421032
-0.0300107
0.0295671
-0.000432399
0.0293418
-0.000437602
0.0291174
-0.000437633
0.0288961
-0.000433061
0.0286799
-0.00042424
0.0284707
-0.000411582
0.0282701
-0.000395603
0.0280793
-0.000376872
0.0278996
-0.000355954
0.0277315
-0.000333373
0.0275758
-0.000309585
0.0274327
-0.000284973
0.0273024
-0.000259847
0.0271851
-0.000234452
0.0270806
-0.000208977
0.026989
-0.000183558
0.0269101
-0.000158294
0.0268437
-0.000133383
-0.000106535
0.0297818
-0.000208307
-0.0299945
0.0295642
-0.000214791
0.0293443
-0.000217709
0.0291245
-0.000217851
0.0289071
-0.000215673
0.0286943
-0.000211376
0.0284879
-0.000205154
0.0282895
-0.000197264
0.0281006
-0.000187993
0.0279223
-0.000177625
0.0277554
-0.000166419
0.0276004
-0.0001546
0.0274578
-0.000142359
0.0273278
-0.000129851
0.0272105
-0.000117198
0.027106
-0.000104494
0.0270143
-9.18055e-05
0.0269352
-7.91966e-05
0.0268685
-6.66903e-05
-5.35059e-05
0.029779
-0.0299873
0.0295642
0.0293465
0.0291287
0.028913
0.0287016
0.0284965
0.0282992
0.0281112
0.0279336
0.0277672
0.0276126
0.0274702
0.0273404
0.0272232
0.0271187
0.0270269
0.0269477
0.026881
0.028369
0.0021441
-0.028151
0.0285924
0.00392083
0.0288099
0.00564728
0.0290107
0.00730444
0.0291825
0.00887805
0.0293128
0.0103575
0.0293881
0.0117339
0.029409
0.012994
0.0293514
0.0141942
0.0149822
0.027794
0.00194175
-0.0275917
0.0280223
0.00369254
0.0282702
0.00539938
0.0285295
0.00704518
0.028791
0.00861647
0.0290464
0.0101022
0.0292838
0.0114965
0.0295044
0.0127733
0.0296648
0.0140338
0.0148255
0.0272884
0.00176165
-0.0271083
0.0275142
0.00346676
0.027778
0.00513558
0.0280733
0.00674986
0.0283927
0.00829701
0.0287297
0.00976526
0.0290731
0.0111531
0.0294219
0.0124245
0.0297545
0.0137012
0.0145146
0.0268515
0.00159437
-0.0266843
0.0270737
0.00324456
0.0273488
0.00486054
0.0276713
0.00642738
0.0280349
0.00793338
0.0284339
0.00936627
0.0288598
0.0107272
0.0293089
0.0119754
0.0297783
0.0132318
0.0140733
0.026476
0.00144504
-0.0263266
0.0266939
0.00302662
0.0269771
0.00457734
0.027321
0.00608351
0.02772
0.00753431
0.028169
0.00891731
0.0286615
0.0102347
0.0291901
0.0114467
0.0297612
0.0126607
0.0135193
0.0261513
0.00130961
-0.0260159
0.0263651
0.00281279
0.0266543
0.00428822
0.0270146
0.00572314
0.0274415
0.00710744
0.0279298
0.00842907
0.0284744
0.00969005
0.0290665
0.0108546
0.0297159
0.0120113
0.0128702
0.0258697
0.00118541
-0.0257455
0.02608
0.00260251
0.0263735
0.00399464
0.0267468
0.00534983
0.0271957
0.00665862
0.0277151
0.00790964
0.0283012
0.00910398
0.0289445
0.0102113
0.0296547
0.0113011
0.0121435
0.0256247
0.0010702
-0.0255095
0.0258321
0.00239513
0.0261292
0.00369752
0.0265128
0.0049662
0.0269792
0.00619228
0.0275236
0.00736525
0.0281425
0.00848505
0.028827
0.0095268
0.0295848
0.0105433
0.0113547
0.0254114
0.00096223
-0.0253034
0.0256164
0.00219006
0.0259164
0.00339752
0.0263084
0.00457426
0.0267888
0.00571188
0.0273532
0.00680086
0.0279982
0.00784004
0.0287156
0.00880939
0.0295108
0.00974805
0.0105166
0.0252258
0.000860114
-0.0251236
0.025429
0.00198683
0.0257314
0.00309515
0.0261301
0.00417555
0.0266218
0.00522016
0.0272022
0.00622042
0.027868
0.00717429
0.0286116
0.00806581
0.0294362
0.00892346
0.00963983
0.0250648
0.000762778
-0.0249674
0.0252665
0.00178506
0.0255709
0.00279081
0.0259751
0.00377131
0.026476
0.00471927
0.0270694
0.00562705
0.0277516
0.00649202
0.028516
0.00730149
0.0293636
0.00807585
0.00873279
0.0249259
0.000669363
-0.0248324
0.0251265
0.00158446
0.0254325
0.00248481
0.0258412
0.00336253
0.0263496
0.00421094
0.0269533
0.00502328
0.0276487
0.0057966
0.0284294
0.00652084
0.0292949
0.00721031
0.00780234
0.024807
0.000579171
-0.0247168
0.0250066
0.0013848
0.025314
0.00217742
0.0257266
0.00295001
0.0262409
0.00369656
0.0268531
0.00441114
0.0275589
0.00509073
0.0283524
0.00572736
0.0292318
0.00633091
0.00685398
0.0247064
0.000491631
-0.0246188
0.0249053
0.00118586
0.0252139
0.00186883
0.0256295
0.00253439
0.0261488
0.00317724
0.0267677
0.00379227
0.0274818
0.00437659
0.0282853
0.00492392
0.0291753
0.00544093
0.00589215
0.0246227
0.000406273
-0.0245373
0.024821
0.000987509
0.0251306
0.00155923
0.0255488
0.00211621
0.0260721
0.0026539
0.0266964
0.00316803
0.027417
0.00365596
0.0282281
0.00411282
0.029126
0.00454304
0.00492047
0.0245546
0.00032271
-0.024471
0.0247525
0.000789599
0.025063
0.00124875
0.0254833
0.0016959
0.0260099
0.00212731
0.0266384
0.00253953
0.027364
0.00293032
0.0281808
0.003296
0.0290844
0.00363945
0.00394189
0.0245012
0.000240615
-0.0244191
0.0246988
0.000592023
0.02501
0.000937528
0.025432
0.00127385
0.0259612
0.00159813
0.026593
0.00190774
0.0273224
0.00220093
0.0281433
0.00247508
0.0290508
0.002732
0.00295884
0.0244616
0.000159672
-0.0243806
0.0246589
0.00039467
0.0249708
0.000625644
0.0253943
0.000850375
0.0259255
0.00106692
0.0265597
0.0012735
0.0272917
0.00146891
0.0281154
0.00165145
0.0290251
0.00182227
0.00197324
0.0244348
7.96475e-05
-0.0243547
0.0246321
0.000197364
0.0249446
0.000313105
0.0253693
0.000425675
0.0259021
0.000534087
0.0265382
0.00063744
0.027272
0.000735117
0.0280972
0.000826252
0.029008
0.000911468
0.000986667
0.0244202
-0.0243405
0.0246175
0.0249306
0.0253563
0.0258904
0.0265278
0.027263
0.0280892
0.0290007
0.0134467
0.0209347
-0.0194748
-0.0149066
0.0118513
0.0214487
-0.0198534
0.0102058
0.0220771
-0.0204317
0.00850898
0.0227836
-0.0210868
0.00676663
0.0235151
-0.0217728
0.00500626
0.0241523
-0.0223919
0.00328831
0.0243649
-0.0226469
0.00172981
0.0233795
-0.0218211
0.000532351
0.0196161
-0.0184186
0.0101699
-0.00963758
0.0120508
0.0223986
-0.0135147
0.010574
0.0229256
0.00906735
0.0235838
0.00752088
0.0243301
0.00593582
0.0251002
0.0043399
0.0257482
0.0027983
0.0259065
0.00142916
0.0247487
0.000416274
0.020629
0.0105862
0.0106548
0.02373
-0.0119862
0.00929158
0.0242888
0.00790583
0.0249695
0.00649502
0.0257409
0.00506228
0.0265329
0.00363568
0.0271748
0.00228154
0.0272606
0.00111492
0.0259153
0.000296857
0.021447
0.0108831
0.00917434
0.0249277
-0.0103721
0.00794389
0.0255192
0.00669347
0.02622
0.00542703
0.0270074
0.00415347
0.0278065
0.00290438
0.0284239
0.00174772
0.0284173
0.000793725
0.0268693
0.000177093
0.0220637
0.0110602
0.00761349
0.0259814
-0.00866717
0.0065312
0.0266015
0.00543103
0.0273201
0.00432114
0.0281172
0.00321687
0.0289107
0.00215493
0.0294858
0.00120477
0.0293674
0.000470109
0.027604
6.01952e-05
0.0224736
0.0111204
0.00599052
0.0268784
-0.00688745
0.00506845
0.0275236
0.00413041
0.0282582
0.00318806
0.0290596
0.00226295
0.0298359
0.00139711
0.0303517
0.000660794
0.0301037
0.000142919
0.0281218
-5.46988e-05
0.0226712
0.0110657
0.00432605
0.0276103
-0.00505802
0.00357207
0.0282776
0.00280515
0.0290251
0.00203983
0.0298249
0.00130265
0.030573
0.000640863
0.0310134
0.000119854
0.0306247
-0.00016169
0.0284034
-0.000160626
0.0226701
0.010905
0.00263886
0.0281721
-0.00320068
0.0020585
0.0288579
0.00146959
0.029614
0.000889513
0.030405
0.00034797
0.0311146
-0.000105599
0.031467
-0.000390302
0.0309095
-0.000442297
0.0284554
-0.000254188
0.022482
0.0106508
0.000944849
0.0285639
-0.00133661
0.000543925
0.0292588
0.000140423
0.0300175
-0.000248663
0.0307941
-0.000586492
0.0314524
-0.000818235
0.0316987
-0.000878761
0.03097
-0.000710325
0.028287
-0.00034031
0.022112
0.0103105
-0.000737414
0.000528635
-0.000956686
-0.00117403
-0.00136616
-0.00149545
-0.00150788
-0.00134115
-0.000956961
-0.000416243
0.0194399
0.00202398
-0.0214639
0.0173494
0.00209051
0.0151852
0.00216418
0.0129398
0.00224543
0.0106057
0.00233411
0.00818358
0.00242208
0.00570237
0.00248121
0.00326574
0.00243663
0.00115075
0.00211498
0.00115075
0.0193435
0.00404221
-0.0213617
0.0172594
0.00417459
0.0151025
0.00432108
0.0128652
0.00448273
0.0105403
0.00465904
0.0081287
0.00483366
0.00565933
0.00495058
0.00323679
0.00485918
0.00114093
0.00421085
0.00229168
0.0191494
0.0060483
-0.0211555
0.0170784
0.00624561
0.0149361
0.00646335
0.0127151
0.00670372
0.0104086
0.00696559
0.00801823
0.00722398
0.00557427
0.00739454
0.00318195
0.00725149
0.00111754
0.00627526
0.00340922
0.018856
0.00803557
-0.0208433
0.0168051
0.00829655
0.014685
0.0085834
0.0124887
0.00890002
0.01021
0.00924431
0.00785188
0.00958212
0.00544613
0.00980028
0.00309903
0.00959859
0.00108312
0.00829118
0.00449234
0.0184619
0.00999721
-0.0204236
0.0164381
0.0103204
0.0143479
0.0106736
0.0121847
0.0110632
0.00994346
0.0114856
0.00762869
0.0118969
0.00527439
0.0121546
0.00298809
0.0118849
0.00103736
0.0102419
0.0055297
0.0179653
0.0119266
-0.0198947
0.0159752
0.0123105
0.0139224
0.0127265
0.0118011
0.0131844
0.00960725
0.0136794
0.00734745
0.0141567
0.00505835
0.0144437
0.00284889
0.0140943
0.00098022
0.0121106
0.00650992
0.0173683
0.0138197
-0.0192614
0.0154167
0.014262
0.0134077
0.0147355
0.0113365
0.0152557
0.00919992
0.015816
0.00700696
0.0163497
0.00479731
0.0166533
0.00268125
0.0162104
0.000911775
0.0138801
0.00742169
0.0166656
0.0156781
-0.018524
0.0147523
0.0161753
0.0127954
0.0166925
0.0107848
0.0172662
0.00871737
0.0178834
0.00660485
0.0184622
0.00449024
0.018768
0.00248503
0.0182156
0.000832209
0.0155329
0.0082539
0.0158664
0.0175245
-0.0177129
0.013994
0.0180478
0.0120947
0.0185917
0.0101494
0.0192115
0.00815974
0.0198731
0.00614059
0.0204813
0.004137
0.0207715
0.00226059
0.020092
0.000741951
0.0170515
0.00899585
0.0149443
-0.0168946
0.0131387
0.0112987
0.00942348
0.00752379
0.00561323
0.00373786
0.00200882
0.00064173
0.0249014
-0.00011161
0.0250101
-0.000108702
0.0251111
-0.00010102
0.025201
-8.98899e-05
0.0252764
-7.53623e-05
0.0253339
-5.74927e-05
0.0253703
-3.64528e-05
0.0253831
-1.27993e-05
0.0253648
1.83326e-05
0.0253092
5.55784e-05
0.0252134
9.58083e-05
0.025073
0.000140374
0.0248829
0.000190172
0.0246367
0.000246172
0.0243271
0.000309551
0.0239454
0.000381738
0.023481
0.000464424
0.0229215
0.000559489
0.0222529
0.000668558
0.000789078
0.0249395
-0.000216409
0.025041
-0.000210241
0.0251347
-0.000194701
0.0252172
-0.00017236
0.0252851
-0.00014323
0.0253349
-0.000107374
0.0253636
-6.51289e-05
0.0253687
-1.78991e-05
0.0253407
4.64003e-05
0.0252763
0.000119925
0.0251721
0.000200035
0.0250235
0.000288912
0.0248255
0.000388239
0.0245717
0.000499928
0.0242549
0.000626323
0.0238664
0.000770267
0.0233957
0.00093514
0.0228305
0.00112471
0.0221566
0.00134242
0.00158397
0.0250145
-0.000306492
0.025101
-0.000296778
0.0251795
-0.000273226
0.0252466
-0.000239463
0.025299
-0.00019554
0.0253332
-0.000141643
0.0253465
-7.84184e-05
0.025338
-9.4268e-06
0.0252913
9.31213e-05
0.0252094
0.000201819
0.0250882
0.000321263
0.0249231
0.000453974
0.0247091
0.000602275
0.02444
0.000769015
0.0241087
0.000957684
0.0237064
0.00117252
0.023223
0.00141858
0.0226462
0.0017015
0.0219619
0.00202673
0.00239036
0.0251236
-0.000374338
0.0251876
-0.000360813
0.0252437
-0.000329305
0.0252884
-0.00028413
0.0253182
-0.000225375
0.02533
-0.000153386
0.025321
-6.94871e-05
0.0252805
3.1061e-05
0.0252079
0.000165735
0.0251007
0.000309071
0.0249546
0.000467307
0.0247654
0.000643238
0.0245278
0.000839859
0.0242359
0.00106087
0.0238828
0.00131083
0.02346
0.00159531
0.0229576
0.00192102
0.0223637
0.00229537
0.0216648
0.0027256
0.00321189
0.0252618
-0.000411825
0.0252949
-0.00039386
0.0253197
-0.000354195
0.025333
-0.000297406
0.0253314
-0.000223793
0.0253123
-0.000134238
0.0252754
-3.2545e-05
0.0251962
0.000110224
0.0250894
0.000272518
0.0249483
0.00045017
0.0247689
0.000646735
0.0245469
0.000865211
0.0242775
0.00110925
0.023955
0.0013834
0.0235726
0.00169324
0.0231223
0.00204557
0.0225947
0.0024486
0.0219787
0.00291142
0.0212622
0.00344205
0.00405054
0.0254266
-0.00041087
0.0254211
-0.000388356
0.0254077
-0.00034082
0.0253828
-0.000272447
0.0253427
-0.000183752
0.0252858
-7.72667e-05
0.0251962
5.69958e-05
0.0250748
0.000231642
0.0249253
0.000421993
0.0247424
0.000633064
0.024522
0.000867133
0.0242599
0.00112734
0.0239513
0.00141784
0.0235909
0.00174386
0.0231722
0.00211188
0.0226881
0.00252973
0.0221298
0.0030069
0.0214871
0.00355413
0.0207511
0.00417801
0.00490693
0.0256096
-0.000362144
0.0255556
-0.000334341
0.025494
-0.000279251
0.0254206
-0.000199029
0.0253341
-9.72407e-05
0.0252325
2.4271e-05
0.0250838
0.000205717
0.0249138
0.000401611
0.0247144
0.000621425
0.0244816
0.000865881
0.0242117
0.00113698
0.023901
0.00143811
0.0235449
0.00177387
0.0231387
0.00215007
0.0226767
0.00257387
0.0221526
0.00305387
0.0215592
0.00360036
0.0208874
0.00422585
0.0201328
0.0049326
0.00577839
0.0258163
-0.000257367
0.0257072
-0.000225204
0.0255905
-0.000162579
0.0254656
-7.41346e-05
0.0253233
4.50591e-05
0.0251346
0.000212998
0.0249341
0.000406226
0.0247075
0.00062817
0.0244512
0.000877746
0.0241619
0.00115523
0.0238362
0.00146267
0.0234706
0.00180365
0.0230614
0.00218307
0.0226043
0.00260723
0.0220943
0.0030838
0.0215263
0.00362192
0.0208943
0.00423233
0.0201907
0.00492947
0.0194135
0.00570981
0.0066679
0.0260193
-8.61618e-05
0.025846
-5.19148e-05
0.0256782
5.19591e-06
0.0254789
0.000125128
0.0252525
0.00027151
0.025012
0.000453498
0.0247473
0.000670914
0.0244551
0.000920417
0.0241325