/*--------------------------------*- C++ -*----------------------------------*\
| =========                 |                                                 |
| \\      /  F ield         | OpenFOAM: The Open Source CFD Toolbox           |
|  \\    /   O peration     | Version:  4.1                                   |
|   \\  /    A nd           | Web:      www.OpenFOAM.org                      |
|    \\/     M anipulation  |                                                 |
\*---------------------------------------------------------------------------*/
FoamFile
{
    version     2.0;
    format      ascii;
    class       volVectorField;
    location    "1.8";
    object      U;
}
// * * * * * * * * * * * * * * * * * * * * * * * * * * * * * * * * * * * * * //

dimensions      [0 1 -1 0 0 0 0];

internalField   nonuniform List<vector> 
2000
(
(0.067141 -0.0560447 -2.43128e-20)
(0.182218 -0.135956 0)
(0.277104 -0.18337 -4.53555e-20)
(0.346782 -0.207915 -2.25525e-20)
(0.394008 -0.216004 4.16498e-20)
(0.423692 -0.213082 6.10024e-20)
(0.440768 -0.203595 -1.85677e-20)
(0.449473 -0.190788 0)
(0.452729 -0.177512 1.79761e-20)
(0.452638 -0.166939 0)
(0.0805619 -0.0575481 1.18714e-20)
(0.212704 -0.136178 -1.24919e-20)
(0.316504 -0.180579 4.4773e-20)
(0.389293 -0.202154 6.58536e-20)
(0.435936 -0.207949 6.61875e-22)
(0.463022 -0.203561 -2.02675e-20)
(0.476662 -0.193314 2.05858e-20)
(0.481791 -0.18024 1.96811e-20)
(0.481672 -0.167061 -1.79762e-20)
(0.478568 -0.156271 -3.53917e-20)
(0.0949177 -0.0575322 -1.26919e-20)
(0.244152 -0.132588 1.18886e-20)
(0.355992 -0.172641 -2.30601e-20)
(0.430842 -0.190672 7.43758e-22)
(0.476042 -0.194126 -2.18024e-20)
(0.499988 -0.188571 -2.11657e-20)
(0.509948 -0.178094 -2.04564e-20)
(0.511481 -0.165469 -1.96812e-20)
(0.508155 -0.153135 -1.98433e-20)
(0.502388 -0.142757 1.9049e-20)
(0.109955 -0.0557842 -2.3649e-22)
(0.275861 -0.124945 1.22214e-20)
(0.394597 -0.159501 0)
(0.470369 -0.17364 -2.31801e-20)
(0.513306 -0.174893 2.25484e-20)
(0.533677 -0.168556 0)
(0.539844 -0.158314 0)
(0.537882 -0.14657 0)
(0.531591 -0.135401 1.98435e-20)
(0.52353 -0.125843 -3.84158e-20)
(0.125359 -0.0521273 -2.70911e-20)
(0.307049 -0.113125 -5.30668e-22)
(0.431316 -0.141272 -1.28249e-20)
(0.506846 -0.151417 -1.14687e-20)
(0.546796 -0.150803 -1.24022e-20)
(0.563303 -0.144198 -1.21535e-20)
(0.565717 -0.134737 0)
(0.560511 -0.124368 -1.14881e-20)
(0.551618 -0.114756 5.44632e-20)
(0.54156 -0.10636 -7.21024e-20)
(0.140757 -0.0464359 4.15644e-20)
(0.33688 -0.0971405 -3.75299e-23)
(0.465153 -0.118236 2.63169e-20)
(0.539319 -0.124524 -2.51653e-20)
(0.575697 -0.122525 3.84065e-20)
(0.588209 -0.116232 -1.22607e-20)
(0.587044 -0.108095 0)
(0.578936 -0.099558 1.14883e-20)
(0.567849 -0.0918505 -1.10934e-20)
(0.556158 -0.0849758 -4.51693e-20)
(0.155729 -0.0386508 0)
(0.364494 -0.0771585 0)
(0.495159 -0.0908485 1.42425e-20)
(0.566945 -0.0936274 -1.326e-20)
(0.59934 -0.0908429 1.37588e-20)
(0.6079 -0.0854692 -1.29177e-20)
(0.603464 -0.0791699 -2.61437e-20)
(0.592883 -0.0728608 2.47114e-20)
(0.580052 -0.0673254 2.4445e-20)
(0.567102 -0.0622461 -1.18685e-20)
(0.16982 -0.0287922 -8.01419e-21)
(0.389045 -0.0535052 0)
(0.520475 -0.0597286 7.53032e-21)
(0.58902 -0.0595222 -2.8953e-20)
(0.61722 -0.0566145 2.129e-20)
(0.622036 -0.0527528 0)
(0.614753 -0.0487482 0)
(0.602197 -0.044984 0)
(0.588096 -0.0418115 2.5997e-20)
(0.574284 -0.0387457 -2.47087e-20)
(0.182564 -0.0169694 3.8031e-21)
(0.409739 -0.0266668 -2.13402e-22)
(0.540367 -0.0256401 7.58732e-21)
(0.605006 -0.0231022 -3.99417e-21)
(0.629 -0.0207516 -3.53219e-21)
(0.630437 -0.0189429 -7.30152e-21)
(0.620827 -0.0176059 0)
(0.606835 -0.0166122 3.65021e-21)
(0.591947 -0.0159105 1.73644e-20)
(0.577679 -0.0150102 -1.31426e-20)
(0.193499 -0.00338638 0)
(0.425873 0.00272085 4.15802e-21)
(0.554254 0.0105311 0)
(0.61454 0.0146666 1.87743e-21)
(0.63452 0.0158081 1.76519e-21)
(0.633071 0.0151062 3.89337e-21)
(0.621717 0.0135012 0)
(0.60685 0.01159 -3.65028e-21)
(0.591652 0.00978125 -3.53584e-21)
(0.577353 0.00843224 -3.55111e-21)
(0.0021439 -0.00312849 0)
(0.0149799 -0.0088083 2.99633e-21)
(0.0395697 -0.0130446 0)
(0.0688096 -0.0158754 3.94905e-21)
(0.0996114 -0.0174369 1.22994e-21)
(0.129984 -0.0179605 -2.27227e-21)
(0.158566 -0.0177107 2.13985e-21)
(0.184598 -0.0169308 -1.96263e-21)
(0.207776 -0.0158121 -3.28949e-23)
(0.22809 -0.014443 -1.68624e-21)
(0.00319648 -0.00938499 9.33678e-21)
(0.0180741 -0.0263195 -5.91333e-21)
(0.0443449 -0.0389144 5.57179e-21)
(0.0747607 -0.0472918 -2.61784e-21)
(0.106259 -0.0518823 -1.2223e-20)
(0.136919 -0.05339 4.58034e-21)
(0.165473 -0.0526066 0)
(0.191256 -0.0502577 1.95609e-21)
(0.214063 -0.046911 1.80228e-21)
(0.233954 -0.0428299 0)
(0.00533568 -0.0156258 -6.19868e-21)
(0.0242795 -0.043523 0)
(0.0538622 -0.0641211 -1.67481e-20)
(0.0865861 -0.0777053 2.08649e-20)
(0.119425 -0.0850532 -4.8854e-21)
(0.150615 -0.0873608 0)
(0.179084 -0.0859449 0)
(0.204357 -0.0820011 0)
(0.22642 -0.0764531 -1.43083e-20)
(0.245474 -0.069732 1.35997e-20)
(0.00860239 -0.0218192 0)
(0.0336156 -0.0602039 1.18821e-20)
(0.0680577 -0.088207 -2.21533e-20)
(0.104115 -0.106448 1.03769e-20)
(0.138839 -0.116122 -9.7727e-21)
(0.17072 -0.118942 2.73928e-20)
(0.198996 -0.116746 -2.43875e-22)
(0.223473 -0.111178 -1.59933e-20)
(0.244423 -0.103481 -1.44648e-20)
(0.262253 -0.0942345 2.05796e-20)
(0.0130517 -0.0279198 -1.24179e-20)
(0.0460941 -0.0761094 2.32958e-20)
(0.0868137 -0.110695 -8.65265e-23)
(0.127071 -0.132852 -5.74159e-23)
(0.164074 -0.144287 -9.78054e-21)
(0.196694 -0.147259 2.76082e-20)
(0.224591 -0.144118 0)
(0.247959 -0.136921 8.05656e-21)
(0.267426 -0.127171 -7.49699e-21)
(0.283677 -0.115558 2.71906e-20)
(0.0187469 -0.0338555 1.09954e-22)
(0.0617044 -0.0909468 -2.32263e-20)
(0.109939 -0.131086 -1.10272e-20)
(0.155053 -0.15626 -1.03969e-20)
(0.194539 -0.168794 -9.80752e-21)
(0.227797 -0.171522 -9.21802e-21)
(0.255045 -0.167286 0)
(0.276955 -0.158509 -8.05656e-21)
(0.294588 -0.14687 -2.24146e-20)
(0.308949 -0.133096 7.24398e-21)
(0.0257475 -0.0395198 1.57865e-22)
(0.0803929 -0.104379 -1.14616e-20)
(0.137148 -0.148859 0)
(0.187522 -0.176035 2.09098e-20)
(0.229479 -0.188957 -1.95854e-20)
(0.263118 -0.191052 0)
(0.289353 -0.185626 0)
(0.309436 -0.175402 0)
(0.324909 -0.162126 1.56295e-20)
(0.337121 -0.146441 2.79806e-20)
(0.0340963 -0.044768 1.21866e-20)
(0.10204 -0.116024 -1.14153e-20)
(0.168045 -0.163485 -2.19627e-20)
(0.223799 -0.191584 -9.6275e-23)
(0.267983 -0.204189 -1.99692e-20)
(0.301597 -0.205318 -1.9009e-20)
(0.326394 -0.198699 -1.80295e-20)
(0.344294 -0.187281 -1.70363e-20)
(0.357346 -0.172752 -1.56296e-20)
(0.367182 -0.155485 1.46311e-20)
(0.0438051 -0.0494177 3.61677e-20)
(0.126442 -0.125463 1.20333e-20)
(0.202108 -0.174437 4.45804e-20)
(0.263059 -0.202371 2.13137e-20)
(0.308994 -0.214005 -2.71724e-22)
(0.342027 -0.213929 1.88903e-20)
(0.364899 -0.206231 -1.85527e-20)
(0.380321 -0.194012 1.70364e-20)
(0.390872 -0.178839 -1.65653e-20)
(0.398293 -0.160784 3.01845e-20)
(0.0548454 -0.0532546 -2.39995e-20)
(0.153299 -0.132252 0)
(0.238702 -0.181213 -2.20571e-20)
(0.304373 -0.207931 4.06334e-22)
(0.351361 -0.218025 1.17453e-22)
(0.383089 -0.216582 -2.00371e-20)
(0.403391 -0.207959 5.55728e-20)
(0.41584 -0.195338 0)
(0.423614 -0.180455 1.65654e-20)
(0.428972 -0.163955 0)
(0.245361 -0.0126827 0)
(0.260884 -0.0110873 1.46085e-21)
(0.274584 -0.00968187 -2.86267e-21)
(0.286624 -0.00845377 1.23057e-21)
(0.297214 -0.0073821 0)
(0.306537 -0.00644646 -1.17997e-21)
(0.314742 -0.0056291 1.18582e-21)
(0.32196 -0.00491478 0)
(0.328305 -0.00429031 0)
(0.33388 -0.00374408 -1.14073e-22)
(0.338774 -0.00326583 0)
(0.343064 -0.00284635 0)
(0.346817 -0.00247734 0)
(0.350092 -0.0021513 0)
(0.352936 -0.00186141 1.11717e-22)
(0.355388 -0.00160129 -1.12296e-22)
(0.357466 -0.00136556 0)
(0.359225 -0.00114689 2.28038e-23)
(0.360734 -0.000952387 -2.29238e-23)
(0.362272 -0.000788753 0)
(0.25028 -0.037653 0)
(0.265021 -0.0329441 -3.77036e-22)
(0.278058 -0.0287883 0)
(0.289551 -0.0251496 -5.14733e-21)
(0.299693 -0.0219697 5.01609e-21)
(0.308647 -0.0191907 -3.07606e-22)
(0.316548 -0.0167612 2.2134e-21)
(0.323514 -0.0146367 -4.55023e-21)
(0.32965 -0.0127785 3.71593e-21)
(0.335052 -0.0111524 -2.02283e-21)
(0.339803 -0.00972812 -1.57239e-21)
(0.343975 -0.00847836 2.79783e-21)
(0.347631 -0.00737857 -1.41247e-21)
(0.350826 -0.00640669 -6.78433e-22)
(0.353604 -0.00554303 5.35716e-22)
(0.356004 -0.00477004 -1.01705e-22)
(0.358045 -0.00407192 -7.95857e-23)
(0.359765 -0.00341862 -9.10983e-23)
(0.361228 -0.00283387 9.15395e-23)
(0.362729 -0.00233984 -1.18515e-23)
(0.259951 -0.0614336 3.97248e-22)
(0.273159 -0.0538279 3.77686e-22)
(0.2849 -0.0470941 3.65811e-22)
(0.295322 -0.0411792 0)
(0.304582 -0.0359975 5.74115e-21)
(0.312808 -0.031461 -4.48563e-21)
(0.320107 -0.0274899 0)
(0.326575 -0.024014 5.41204e-22)
(0.3323 -0.0209715 2.48659e-22)
(0.337361 -0.0183073 -3.04302e-21)
(0.341831 -0.0159726 3.47133e-22)
(0.34577 -0.0139229 3.55922e-21)
(0.349234 -0.0121185 1.6827e-22)
(0.352269 -0.0105234 1.44329e-22)
(0.354915 -0.0091052 1.24621e-22)
(0.357206 -0.00783474 -2.60164e-22)
(0.359179 -0.00668322 2.49324e-22)
(0.360836 -0.00561429 2.73287e-22)
(0.362211 -0.00465272 5.78184e-23)
(0.363626 -0.00382934 3.7911e-25)
(0.274064 -0.0832828 1.21729e-20)
(0.285038 -0.073125 -5.52914e-22)
(0.294898 -0.0640869 -9.5084e-22)
(0.303758 -0.0561114 -1.15481e-20)
(0.311726 -0.0491007 -1.00372e-21)
(0.318885 -0.0429472 -3.11318e-22)
(0.325302 -0.0375506 8.4844e-21)
(0.33104 -0.0328201 -5.16316e-21)
(0.336161 -0.0286743 -4.22707e-21)
(0.340725 -0.02504 3.78816e-21)
(0.344783 -0.0218519 -3.50729e-22)
(0.348383 -0.0190505 -3.79012e-21)
(0.351567 -0.016582 -1.66868e-22)
(0.354371 -0.0143977 -1.3789e-21)
(0.35683 -0.0124536 9.62216e-22)
(0.358972 -0.0107104 7.26761e-22)
(0.360833 -0.00913265 -6.46435e-22)
(0.362382 -0.00769575 0)
(0.363643 -0.00636376 -1.04129e-22)
(0.364944 -0.00521426 -1.16709e-23)
(0.292124 -0.102569 -2.67367e-20)
(0.30025 -0.0903144 1.15475e-20)
(0.307716 -0.0793305 -1.23663e-20)
(0.31458 -0.0695792 0)
(0.320891 -0.0609696 6.73288e-22)
(0.326679 -0.0533887 9.91984e-21)
(0.331962 -0.0467244 -8.07594e-23)
(0.336764 -0.0408715 -6.86509e-22)
(0.341112 -0.0357334 -8.60321e-21)
(0.345038 -0.0312228 -4.67616e-22)
(0.348571 -0.0272609 0)
(0.351738 -0.0237754 3.8101e-22)
(0.354565 -0.0207008 0)
(0.357075 -0.0179777 2.92948e-22)
(0.35929 -0.0155531 0)
(0.361229 -0.0133801 0)
(0.362915 -0.0114177 -1.58889e-22)
(0.364358 -0.00963212 1.84726e-22)
(0.365516 -0.00795132 -1.62906e-22)
(0.366648 -0.00647961 4.65503e-23)
(0.313486 -0.118779 0)
(0.318244 -0.104963 8.03063e-22)
(0.322892 -0.092458 2.42417e-20)
(0.327401 -0.0812703 -2.34908e-20)
(0.331751 -0.0713393 7.09627e-22)
(0.335914 -0.0625607 0)
(0.339856 -0.0548186 9.49037e-21)
(0.343551 -0.0479994 -1.76995e-20)
(0.346987 -0.0419975 9.32607e-21)
(0.350161 -0.0367168 4.90824e-22)
(0.353074 -0.0320693 4.45041e-22)
(0.355728 -0.027974 3.98895e-22)
(0.358132 -0.0243565 0)
(0.360292 -0.0211489 -1.9159e-21)
(0.362217 -0.0182904 4.33335e-21)
(0.363919 -0.0157271 -1.85267e-21)
(0.365415 -0.0134123 1.65029e-22)
(0.36673 -0.0113106 1.17943e-22)
(0.367767 -0.00938884 -4.6604e-23)
(0.368712 -0.00759884 4.65917e-23)
(0.337382 -0.131526 -2.84348e-20)
(0.338352 -0.116748 0)
(0.339857 -0.103206 8.16983e-22)
(0.341749 -0.090965 -1.52827e-21)
(0.343918 -0.0800295 -1.4439e-21)
(0.346278 -0.0703213 -6.89622e-22)
(0.348734 -0.0617275 -6.44284e-22)
(0.351205 -0.0541321 8.45432e-21)
(0.353631 -0.0474261 -1.00966e-20)
(0.35597 -0.0415093 -8.52951e-21)
(0.358192 -0.0362889 7.0836e-21)
(0.360275 -0.0316782 -8.01587e-22)
(0.362204 -0.0275964 2.63648e-21)
(0.363971 -0.0239694 -6.73723e-22)
(0.36557 -0.0207302 -2.77044e-21)
(0.366997 -0.0178193 -2.15296e-22)
(0.368252 -0.0151856 2.33782e-22)
(0.369342 -0.0127903 -3.01931e-22)
(0.37029 -0.0106123 -4.44754e-22)
(0.37113 -0.00858177 -2.38935e-23)
(0.363014 -0.14049 0)
(0.359852 -0.125412 2.7444e-20)
(0.357997 -0.111406 -2.81444e-20)
(0.357124 -0.0985479 7.79373e-22)
(0.35698 -0.0869484 1.49689e-21)
(0.357419 -0.0765716 6.89018e-22)
(0.358296 -0.0673222 1.30876e-21)
(0.359469 -0.0590992 0)
(0.360826 -0.0518054 5.46783e-22)
(0.362282 -0.0453476 4.9859e-22)
(0.363773 -0.0396361 4.67864e-22)
(0.365251 -0.034584 8.19712e-22)
(0.366679 -0.0301082 0)
(0.368031 -0.0261305 0)
(0.369286 -0.022579 2.57829e-22)
(0.37043 -0.0193886 1.954e-21)
(0.371455 -0.0165007 -1.35562e-21)
(0.372354 -0.0138639 1.20557e-22)
(0.373109 -0.011441 2.35954e-22)
(0.373879 -0.00921947 -7.09533e-23)
(0.389792 -0.145791 -3.1463e-20)
(0.382072 -0.131061 0)
(0.376719 -0.117121 0)
(0.373085 -0.10413 2.57753e-20)
(0.370633 -0.0923292 -2.16765e-21)
(0.369139 -0.0816881 -4.65778e-20)
(0.36841 -0.0721179 2.1739e-20)
(0.36825 -0.0635351 0)
(0.368499 -0.0558618 0)
(0.369031 -0.0490213 0)
(0.369753 -0.0429357 -2.20239e-22)
(0.370588 -0.0375252 -6.26169e-22)
(0.37148 -0.0327098 -5.49829e-21)
(0.372383 -0.0284117 5.29771e-21)
(0.373265 -0.0245577 -1.94198e-21)
(0.374099 -0.0210808 1.71582e-21)
(0.374869 -0.01792 0)
(0.37556 -0.0150214 -5.56506e-23)
(0.376148 -0.0123403 -6.97222e-23)
(0.376728 -0.00978585 0)
(0.417688 -0.148478 4.92379e-22)
(0.40495 -0.133929 3.02923e-20)
(0.395729 -0.119684 -2.99763e-20)
(0.389153 -0.106372 0)
(0.384341 -0.0942857 -2.53825e-20)
(0.380918 -0.0833693 4.87607e-20)
(0.378607 -0.0735266 -2.33979e-20)
(0.37715 -0.0646737 0)
(0.376329 -0.0567389 -9.16258e-21)
(0.375978 -0.0496567 1.73527e-20)
(0.375967 -0.0433603 -8.43734e-21)
(0.376195 -0.0377778 2.11361e-22)
(0.376582 -0.0328333 0)
(0.377067 -0.0284491 4.98975e-21)
(0.377602 -0.0245501 -6.78202e-21)
(0.378152 -0.0210658 1.97844e-21)
(0.378691 -0.0179315 1.17942e-21)
(0.379201 -0.0150887 -8.37739e-22)
(0.379654 -0.0124892 -3.86421e-22)
(0.380146 -0.00998856 0)
(0.446123 -0.142746 0)
(0.42863 -0.134089 0)
(0.415015 -0.123451 0)
(0.405152 -0.112418 0)
(0.397856 -0.101594 0)
(0.392444 -0.0912835 0)
(0.388522 -0.0816241 0)
(0.385758 -0.0726628 0)
(0.383867 -0.0644152 0)
(0.382627 -0.0568816 0)
(0.381869 -0.0500439 0)
(0.381464 -0.0438648 0)
(0.381311 -0.0382919 0)
(0.381335 -0.0332636 0)
(0.381477 -0.028715 0)
(0.381693 -0.0245822 0)
(0.38195 -0.0208048 0)
(0.382225 -0.017327 0)
(0.382495 -0.0141068 0)
(0.382852 -0.0109523 0)
(0.453622 -0.123562 0)
(0.43928 -0.116419 0)
(0.426518 -0.1082 0)
(0.416374 -0.099744 0)
(0.408389 -0.0913395 0)
(0.402111 -0.0831193 0)
(0.397268 -0.0751838 0)
(0.39361 -0.0676151 0)
(0.390895 -0.0604817 0)
(0.388914 -0.053835 0)
(0.387501 -0.0477019 0)
(0.386521 -0.0420822 0)
(0.385868 -0.0369534 0)
(0.385458 -0.0322781 0)
(0.385225 -0.0280106 0)
(0.385119 -0.0241024 0)
(0.385103 -0.0205057 0)
(0.385148 -0.0171746 0)
(0.385229 -0.0140785 0)
(0.385365 -0.011024 0)
(0.458304 -0.10885 0)
(0.445611 -0.10352 0)
(0.434032 -0.0973161 0)
(0.424469 -0.0907001 0)
(0.416616 -0.083941 0)
(0.410148 -0.0771627 0)
(0.4049 -0.0704554 0)
(0.400719 -0.0639092 0)
(0.397435 -0.0576118 0)
(0.394889 -0.051638 0)
(0.392939 -0.046039 0)
(0.391465 -0.0408387 0)
(0.390365 -0.0360365 0)
(0.389557 -0.0316138 0)
(0.388974 -0.027541 0)
(0.388563 -0.0237825 0)
(0.388284 -0.0203012 0)
(0.388102 -0.01706 0)
(0.387998 -0.0140359 0)
(0.387928 -0.0110263 0)
(0.46146 -0.0960595 0)
(0.450001 -0.092301 0)
(0.43951 -0.0876433 0)
(0.430644 -0.0824576 0)
(0.423142 -0.077004 0)
(0.416761 -0.0714056 0)
(0.411397 -0.0657454 0)
(0.406957 -0.0601098 0)
(0.403328 -0.0545884 0)
(0.400394 -0.0492625 0)
(0.398045 -0.0441943 0)
(0.39618 -0.0394217 0)
(0.394712 -0.0349597 0)
(0.393565 -0.0308047 0)
(0.392676 -0.0269408 0)
(0.391992 -0.0233444 0)
(0.391473 -0.0199883 0)
(0.391083 -0.0168433 0)
(0.39081 -0.0138926 0)
(0.390558 -0.0109295 0)
(0.463607 -0.0846471 0)
(0.453282 -0.0820604 0)
(0.443752 -0.0785924 0)
(0.435535 -0.074556 0)
(0.428418 -0.0701754 0)
(0.422224 -0.0655649 0)
(0.416887 -0.0608046 0)
(0.412347 -0.0559778 0)
(0.408528 -0.0511714 0)
(0.405345 -0.0464658 0)
(0.402716 -0.0419257 0)
(0.40056 -0.0375956 0)
(0.398804 -0.0334997 0)
(0.397381 -0.0296447 0)
(0.396235 -0.0260254 0)
(0.395318 -0.022628 0)
(0.394591 -0.0194337 0)
(0.394018 -0.0164206 0)
(0.393594 -0.013578 0)
(0.393178 -0.0107006 0)
(0.465001 -0.0744533 0)
(0.455708 -0.0727701 0)
(0.447049 -0.0702473 0)
(0.439438 -0.0671437 0)
(0.432715 -0.0636481 0)
(0.426757 -0.0598647 0)
(0.421525 -0.0558722 0)
(0.416982 -0.0517514 0)
(0.413076 -0.0475848 0)
(0.409747 -0.0434495 0)
(0.406931 -0.0394091 0)
(0.404565 -0.0355101 0)
(0.402591 -0.0317814 0)
(0.400951 -0.028237 0)
(0.399597 -0.0248789 0)
(0.398486 -0.021701 0)
(0.397583 -0.0186915 0)
(0.396852 -0.0158346 0)
(0.396297 -0.0131254 0)
(0.395735 -0.0103616 0)
(0.465798 -0.0653791 0)
(0.457439 -0.0643762 0)
(0.449576 -0.0625885 0)
(0.442538 -0.0602301 0)
(0.436212 -0.0574593 0)
(0.430517 -0.0543688 0)
(0.425439 -0.0510328 0)
(0.420956 -0.0475278 0)
(0.417035 -0.043931 0)
(0.413631 -0.0403145 0)
(0.410698 -0.0367389 0)
(0.408189 -0.0332504 0)
(0.406054 -0.0298803 0)
(0.404248 -0.0266465 0)
(0.40273 -0.0235564 0)
(0.401462 -0.0206094 0)
(0.400412 -0.0177995 0)
(0.399548 -0.0151158 0)
(0.398883 -0.0125581 0)
(0.398196 -0.00992941 0)
(0.466143 -0.0572979 0)
(0.458617 -0.056788 0)
(0.451477 -0.0555598 0)
(0.444978 -0.0537895 0)
(0.439042 -0.0516086 0)
(0.433627 -0.0490969 0)
(0.428733 -0.0463219 0)
(0.424352 -0.0433534 0)
(0.420464 -0.0402625 0)
(0.417038 -0.0371153 0)
(0.414043 -0.0339686 0)
(0.41144 -0.0308667 0)
(0.409193 -0.0278415 0)
(0.407263 -0.0249131 0)
(0.405618 -0.0220923 0)
(0.404225 -0.0193826 0)
(0.403057 -0.0167822 0)
(0.402083 -0.0142843 0)
(0.401325 -0.0118924 0)
(0.400532 -0.00941668 0)
(0.466157 -0.0500786 0)
(0.459367 -0.0499164 0)
(0.452878 -0.049108 0)
(0.446877 -0.0477981 0)
(0.441319 -0.0460945 0)
(0.436187 -0.0440644 0)
(0.431493 -0.0417667 0)
(0.427241 -0.0392642 0)
(0.42342 -0.0366206 0)
(0.420012 -0.033896 0)
(0.416992 -0.0311424 0)
(0.414336 -0.0284016 0)
(0.412014 -0.0257046 0)
(0.409996 -0.0230725 0)
(0.408255 -0.0205183 0)
(0.406765 -0.018048 0)
(0.405503 -0.0156629 0)
(0.40444 -0.0133596 0)
(0.403606 -0.0111443 0)
(0.402723 -0.00883604 0)
(0.465936 -0.0436043 0)
(0.459793 -0.0436787 0)
(0.453883 -0.0431806 0)
(0.448338 -0.042228 0)
(0.443137 -0.0409083 0)
(0.438283 -0.0392766 0)
(0.433797 -0.0373837 0)
(0.429689 -0.0352844 0)
(0.425957 -0.0330352 0)
(0.422591 -0.0306896 0)
(0.419578 -0.0282948 0)
(0.416898 -0.0258891 0)
(0.41453 -0.0235022 0)
(0.412452 -0.0211552 0)
(0.410642 -0.0188617 0)
(0.409078 -0.0166298 0)
(0.407743 -0.0144627 0)
(0.406609 -0.0123597 0)
(0.405713 -0.0103286 0)
(0.404757 -0.00819914 0)
(0.465561 -0.0377703 0)
(0.459982 -0.0379977 0)
(0.454582 -0.0377242 0)
(0.449448 -0.0370461 0)
(0.444578 -0.036033 0)
(0.439989 -0.0347298 0)
(0.435709 -0.0331788 0)
(0.431751 -0.0314277 0)
(0.428121 -0.0295253 0)
(0.424815 -0.027519 0)
(0.421828 -0.0254506 0)
(0.419146 -0.0233551 0)
(0.416756 -0.0212599 0)
(0.41464 -0.0191852 0)
(0.412782 -0.017145 0)
(0.411164 -0.0151482 0)
(0.409773 -0.0131996 0)
(0.408583 -0.0112998 0)
(0.407638 -0.0094582 0)
(0.406623 -0.00751631 0)
(0.465096 -0.0324834 0)
(0.460005 -0.0328008 0)
(0.45505 -0.0326857 0)
(0.450281 -0.0322158 0)
(0.445712 -0.0314463 0)
(0.44137 -0.0304127 0)
(0.437286 -0.0291503 0)
(0.433478 -0.0276992 0)
(0.429954 -0.0261018 0)
(0.426719 -0.0243989 0)
(0.423771 -0.0226274 0)
(0.421104 -0.0208184 0)
(0.418707 -0.0189968 0)
(0.41657 -0.0171816 0)
(0.41468 -0.0153863 0)
(0.413024 -0.0136201 0)
(0.411592 -0.0118884 0)
(0.410359 -0.0101931 0)
(0.409376 -0.0085443 0)
(0.408314 -0.00679657 0)
(0.464591 -0.0276607 0)
(0.459918 -0.0280211 0)
(0.455347 -0.028013 0)
(0.450898 -0.0276989 0)
(0.446597 -0.0271216 0)
(0.44248 -0.026309 0)
(0.438579 -0.0252899 0)
(0.434913 -0.024098 0)
(0.431495 -0.0227689 0)
(0.428335 -0.0213377 0)
(0.425433 -0.0198364 0)
(0.42279 -0.0182922 0)
(0.420399 -0.0167274 0)
(0.418253 -0.015159 0)
(0.416345 -0.0135998 0)
(0.414663 -0.0120587 0)
(0.4132 -0.0105415 0)
(0.411935 -0.00905074 0)
(0.410923 -0.00759642 0)
(0.409824 -0.00604768 0)
(0.464085 -0.0232284 0)
(0.459765 -0.023597 0)
(0.455522 -0.0236566 0)
(0.451348 -0.0234567 0)
(0.447281 -0.0230304 0)
(0.443364 -0.0223989 0)
(0.439628 -0.0215854 0)
(0.436093 -0.0206177 0)
(0.432777 -0.0195255 0)
(0.429689 -0.0183386 0)
(0.426838 -0.0170839 0)
(0.424224 -0.0157851 0)
(0.421846 -0.0144613 0)
(0.4197 -0.0131279 0)
(0.417782 -0.0117962 0)
(0.416083 -0.0104747 0)
(0.4146 -0.00916882 0)
(0.413312 -0.00788159 0)
(0.412278 -0.00662252 0)
(0.41115 -0.00527618 0)
(0.463604 -0.0191204 0)
(0.459581 -0.0194715 0)
(0.455611 -0.0195688 0)
(0.45167 -0.0194509 0)
(0.447805 -0.0191425 0)
(0.444061 -0.0186596 0)
(0.440469 -0.0180207 0)
(0.437052 -0.0172481 0)
(0.433827 -0.0163665 0)
(0.430808 -0.0154002 0)
(0.428005 -0.0143719 0)
(0.425422 -0.0133013 0)
(0.423061 -0.0122049 0)
(0.420921 -0.0110956 0)
(0.418999 -0.00998346 0)
(0.417291 -0.00887589 0)
(0.415793 -0.00777807 0)
(0.414489 -0.00669291 0)
(0.413439 -0.00562906 0)
(0.41229 -0.00448747 0)
(0.463171 -0.0152775 0)
(0.45939 -0.0155929 0)
(0.455644 -0.0157052 0)
(0.451896 -0.015644 0)
(0.448199 -0.0154273 0)
(0.444601 -0.015067 0)
(0.441132 -0.0145773 0)
(0.437814 -0.0139761 0)
(0.434669 -0.013283 0)
(0.431711 -0.0125178 0)
(0.428952 -0.0116988 0)
(0.426399 -0.0108422 0)
(0.424055 -0.00996116 0)
(0.421924 -0.0090666 0)
(0.420002 -0.00816685 0)
(0.418289 -0.00726819 0)
(0.416783 -0.00637514 0)
(0.415467 -0.00549034 0)
(0.414406 -0.00462127 0)
(0.413241 -0.00368599 0)
(0.462801 -0.0116468 0)
(0.459214 -0.0119136 0)
(0.455647 -0.012024 0)
(0.452054 -0.0119997 0)
(0.448491 -0.011854 0)
(0.445009 -0.0115955 0)
(0.441639 -0.0112348 0)
(0.438403 -0.0107859 0)
(0.435322 -0.0102639 0)
(0.432415 -0.00968409 0)
(0.429693 -0.00906068 0)
(0.427166 -0.00840611 0)
(0.42484 -0.0077308 0)
(0.422717 -0.00704314 0)
(0.420798 -0.00634973 0)
(0.419083 -0.00565557 0)
(0.417572 -0.00496431 0)
(0.416248 -0.00427822 0)
(0.415179 -0.00360325 0)
(0.414003 -0.00287533 0)
(0.462506 -0.00818497 0)
(0.459069 -0.00839281 0)
(0.45564 -0.00848681 0)
(0.452163 -0.00848315 0)
(0.448701 -0.00839154 0)
(0.445307 -0.00821826 0)
(0.44201 -0.00797109 0)
(0.438835 -0.00765992 0)
(0.435803 -0.00729571 0)
(0.432933 -0.00688939 0)
(0.43024 -0.00645109 0)
(0.427734 -0.00598965 0)
(0.425422 -0.00551249 0)
(0.423306 -0.00502562 0)
(0.421391 -0.00453375 0)
(0.419675 -0.00404053 0)
(0.418161 -0.0035486 0)
(0.416833 -0.00305977 0)
(0.415758 -0.00257809 0)
(0.414575 -0.0020586 0)
(0.462304 -0.00485271 0)
(0.458976 -0.00499066 0)
(0.455641 -0.00505493 0)
(0.452241 -0.00505785 0)
(0.448844 -0.0050071 0)
(0.445505 -0.00490702 0)
(0.442256 -0.0047623 0)
(0.439119 -0.00457893 0)
(0.436119 -0.00436352 0)
(0.433275 -0.00412262 0)
(0.430602 -0.00386228 0)
(0.42811 -0.00358777 0)
(0.425806 -0.00330352 0)
(0.423697 -0.0030131 0)
(0.421784 -0.00271935 0)
(0.420069 -0.00242447 0)
(0.418553 -0.00213004 0)
(0.417222 -0.00183733 0)
(0.416144 -0.00154802 0)
(0.414956 -0.00123844 0)
(0.462227 -0.00156274 0)
(0.458954 -0.00164006 0)
(0.455661 -0.00167376 0)
(0.452293 -0.00167931 0)
(0.448923 -0.00166423 0)
(0.445609 -0.00163181 0)
(0.44238 -0.00158419 0)
(0.439262 -0.00152357 0)
(0.436277 -0.00145223 0)
(0.433445 -0.00137237 0)
(0.430781 -0.00128601 0)
(0.428296 -0.00119489 0)
(0.425998 -0.00110047 0)
(0.423892 -0.00100395 0)
(0.42198 -0.000906265 0)
(0.420265 -0.000808152 0)
(0.418749 -0.000710124 0)
(0.417417 -0.000612685 0)
(0.416335 -0.000515985 0)
(0.415148 -0.000413901 0)
(0.564732 0.00768398 3.46913e-21)
(0.565222 -0.0115168 0)
(0.562681 -0.0311374 -7.53564e-22)
(0.557059 -0.0507919 -2.29268e-20)
(0.548375 -0.070073 4.39812e-20)
(0.536683 -0.0885203 0)
(0.522242 -0.105738 3.96637e-20)
(0.505017 -0.121112 0)
(0.486635 -0.134244 3.69194e-20)
(0.462227 -0.14574 -5.64132e-22)
(0.553351 0.00668661 -3.57151e-21)
(0.553847 -0.0099186 8.15151e-22)
(0.551724 -0.02683 -8.16633e-22)
(0.546986 -0.0437352 -4.12247e-22)
(0.539707 -0.0603137 -2.15224e-20)
(0.52993 -0.076202 -1.38476e-21)
(0.518047 -0.0911423 0)
(0.503502 -0.104662 -3.93281e-20)
(0.488988 -0.116521 0)
(0.466418 -0.128435 -3.59321e-20)
(0.543436 0.00559628 7.21172e-21)
(0.543833 -0.00878084 0)
(0.542008 -0.0233862 -7.84826e-22)
(0.537944 -0.0379854 4.22714e-22)
(0.531734 -0.0523268 2.29359e-20)
(0.523375 -0.0661261 0)
(0.513358 -0.0791847 4.07047e-20)
(0.500805 -0.0911751 4.04221e-20)
(0.489073 -0.101645 0)
(0.469553 -0.112964 3.5561e-20)
(0.534811 0.00468688 -3.19554e-21)
(0.53517 -0.0077238 1.34771e-20)
(0.533583 -0.0203162 0)
(0.530063 -0.0329045 2.46836e-20)
(0.524719 -0.0452863 1.42954e-21)
(0.517523 -0.0572416 -2.78609e-21)
(0.509014 -0.0685879 -3.9239e-20)
(0.49821 -0.0791457 -1.28815e-21)
(0.488457 -0.0883053 -3.84408e-20)
(0.471753 -0.0987423 0)
(0.527462 0.00390976 0)
(0.527707 -0.00681242 -1.31305e-20)
(0.526276 -0.0176982 -1.50379e-20)
(0.523176 -0.0285781 2.34335e-21)
(0.518516 -0.0392851 -1.53349e-21)
(0.512257 -0.0496523 -1.37312e-21)
(0.504923 -0.0595066 -4.03744e-20)
(0.495575 -0.0687888 -2.53352e-21)
(0.487194 -0.0768317 6.68116e-22)
(0.472938 -0.0862076 3.66763e-20)
(0.521099 0.00328566 3.75329e-21)
(0.521247 -0.00601822 8.6604e-22)
(0.519931 -0.01545 -1.79823e-21)
(0.51716 -0.0248724 8.19957e-22)
(0.513039 -0.0341471 -2.42916e-20)
(0.507532 -0.043149 0)
(0.501115 -0.0517154 4.42712e-20)
(0.492979 -0.0598568 -1.31334e-21)
(0.485631 -0.0669236 7.74037e-20)
(0.47344 -0.0751981 -7.31131e-20)
(0.515573 0.00276843 -3.77177e-21)
(0.515641 -0.00531186 -7.21042e-21)
(0.514415 -0.0134919 1.35902e-20)
(0.511907 -0.0216599 -2.4371e-20)
(0.508215 -0.0297003 -1.79337e-21)
(0.503319 -0.037518 -2.32116e-20)
(0.497627 -0.0449651 1.3271e-21)
(0.490493 -0.0520841 -2.57586e-21)
(0.483949 -0.0582968 -3.74262e-20)
(0.473451 -0.0655376 3.64384e-20)
(0.510759 0.00233913 0)
(0.510764 -0.00467787 1.54119e-20)
(0.509611 -0.0117727 -1.72409e-21)
(0.507316 -0.018854 1.37535e-20)
(0.503969 -0.0258248 -1.98695e-22)
(0.499568 -0.0326112 4.52038e-20)
(0.494456 -0.0390837 -2.06793e-20)
(0.488136 -0.0452936 0)
(0.482229 -0.0507529 0)
(0.473111 -0.0570543 0)
(0.506562 0.00197915 0)
(0.506518 -0.00410605 -1.37717e-20)
(0.505425 -0.0102526 -8.92179e-22)
(0.503304 -0.0163853 1.31421e-20)
(0.500237 -0.0224231 2.4829e-20)
(0.496237 -0.0283066 -2.48427e-20)
(0.491588 -0.0339258 2.48124e-20)
(0.485926 -0.0393283 -1.33709e-21)
(0.48053 -0.0441144 0)
(0.472531 -0.0495739 1.84515e-20)
(0.502906 0.00167408 4.74547e-22)
(0.502824 -0.00358781 7.81381e-21)
(0.501782 -0.0088989 1.23258e-20)
(0.499803 -0.014197 -7.69344e-22)
(0.496963 -0.0194144 1.61093e-21)
(0.493288 -0.0245023 -2.51957e-20)
(0.489013 -0.0293691 2.51312e-20)
(0.483878 -0.0340533 -1.34202e-21)
(0.478891 -0.0382334 0)
(0.471799 -0.0429431 -3.66974e-20)
(0.499732 0.00141297 0)
(0.49962 -0.00311578 7.47516e-21)
(0.49862 -0.00768476 5.95274e-23)
(0.496758 -0.0122426 0)
(0.494103 -0.0167328 0)
(0.490691 -0.0211147 2.22985e-20)
(0.486717 -0.0253127 -2.08633e-20)
(0.482004 -0.0293557 -1.27664e-21)
(0.477344 -0.0329875 6.6265e-22)
(0.470984 -0.03703 1.88358e-20)
(0.496991 0.00118735 0)
(0.496855 -0.00268343 -1.41246e-20)
(0.495891 -0.00658782 -1.60403e-20)
(0.494124 -0.0104835 2.51363e-21)
(0.49162 -0.0143238 -1.63277e-21)
(0.48842 -0.0180742 -1.45999e-21)
(0.484689 -0.0216731 2.80909e-21)
(0.480313 -0.0251406 1.84461e-20)
(0.475912 -0.0282735 1.85615e-21)
(0.470142 -0.031721 -5.86632e-22)
(0.494644 0.000990572 0)
(0.494489 -0.00228491 7.56857e-21)
(0.493553 -0.00558902 -8.78348e-22)
(0.491865 -0.00888721 8.71048e-22)
(0.489482 -0.0121413 0)
(0.486454 -0.0153222 0)
(0.482918 -0.0183797 0)
(0.478809 -0.021327 -2.09805e-20)
(0.474613 -0.0240034 1.96481e-20)
(0.469316 -0.026918 0)
(0.492657 0.000817326 0)
(0.492486 -0.00191492 4.75352e-21)
(0.491574 -0.00467196 6.3268e-21)
(0.489949 -0.00742611 8.52799e-21)
(0.487665 -0.0101466 -1.65091e-21)
(0.484774 -0.012809 1.06372e-20)
(0.481393 -0.0153729 -9.87258e-21)
(0.477495 -0.0178459 0)
(0.47346 -0.0201016 6.88167e-22)
(0.468539 -0.0225357 -1.87458e-20)
(0.491004 0.000663391 -1.00849e-21)
(0.490819 -0.00156862 -3.8389e-21)
(0.489926 -0.00382236 -8.17351e-21)
(0.488351 -0.00607626 -5.9954e-21)
(0.486146 -0.00830604 0)
(0.483363 -0.0104916 -1.35884e-20)
(0.480106 -0.0126009 1.41276e-20)
(0.476372 -0.0146375 -1.35023e-21)
(0.47246 -0.0165026 -9.69576e-21)
(0.467835 -0.0184996 2.70252e-20)
(0.48966 0.000525571 1.01368e-21)
(0.489463 -0.00124132 -2.92495e-21)
(0.488584 -0.00302738 2.73364e-21)
(0.48705 -0.00481654 -6.93273e-21)
(0.484907 -0.00659029 0)
(0.482208 -0.00833274 0)
(0.479046 -0.0100188 1.38165e-21)
(0.475438 -0.0116495 -1.31645e-20)
(0.471619 -0.0131488 -8.45951e-21)
(0.467221 -0.014744 -8.94798e-21)
(0.488605 0.000400717 0)
(0.488399 -0.000929053 4.84092e-21)
(0.48753 -0.00227562 -1.83946e-21)
(0.486026 -0.0036279 6.14346e-21)
(0.48393 -0.00497269 1.6724e-21)
(0.481296 -0.00629812 -1.48831e-21)
(0.478204 -0.00758548 2.83704e-21)
(0.474689 -0.00883437 9.14049e-21)
(0.470938 -0.00998806 0)
(0.466709 -0.0112102 0)
(0.487823 0.000285738 0)
(0.487608 -0.000630658 1.95836e-21)
(0.486747 -0.00156144 -3.70779e-21)
(0.485264 -0.00249974 0)
(0.483202 -0.0034371 -3.2805e-21)
(0.480614 -0.00436564 -1.4916e-21)
(0.477572 -0.00527258 -4.22492e-21)
(0.474122 -0.0061573 -1.2772e-21)
(0.470415 -0.00698002 6.51415e-22)
(0.466305 -0.00785132 5.68241e-22)
(0.487295 0.000188749 0)
(0.487073 -0.000333688 -1.96783e-21)
(0.486217 -0.000867545 -1.84476e-21)
(0.48475 -0.0014103 2.61472e-21)
(0.482712 -0.00195785 1.6021e-21)
(0.480153 -0.00250615 1.53207e-21)
(0.477145 -0.00304798 7.05016e-21)
(0.473735 -0.00358337 -5.23284e-21)
(0.470057 -0.0040881 1.23262e-21)
(0.466023 -0.00462949 0)
(0.487006 7.94479e-05 0)
(0.486782 -2.15393e-05 9.7458e-22)
(0.48593 -0.000132447 -9.43643e-22)
(0.484473 -0.000256182 9.07302e-22)
(0.48245 -0.000394795 0)
(0.47991 -0.000550505 -1.5399e-21)
(0.476922 -0.000724725 1.38929e-21)
(0.473538 -0.000922064 1.27345e-21)
(0.46988 -0.00113874 0)
(0.465895 -0.00140817 0)
(0.424625 0.13937 0)
(0.422064 0.153847 -4.80299e-20)
(0.421889 0.171072 0)
(0.421172 0.191719 -1.58924e-19)
(0.418756 0.215169 5.80585e-20)
(0.412896 0.240041 8.97701e-22)
(0.398958 0.26211 5.95811e-20)
(0.366355 0.270833 -2.30895e-21)