/*--------------------------------*- C++ -*----------------------------------*\
| =========                 |                                                 |
| \\      /  F ield         | OpenFOAM: The Open Source CFD Toolbox           |
|  \\    /   O peration     | Version:  4.1                                   |
|   \\  /    A nd           | Web:      www.OpenFOAM.org                      |
|    \\/     M anipulation  |                                                 |
\*---------------------------------------------------------------------------*/
FoamFile
{
    version     2.0;
    format      ascii;
    class       volScalarField;
    location    "12.2";
    object      p;
}
// * * * * * * * * * * * * * * * * * * * * * * * * * * * * * * * * * * * * * //

dimensions      [0 2 -2 0 0 0 0];

internalField   nonuniform List<scalar> 
2000
(
0.0592607
0.0678995
0.0762669
0.0843853
0.0917762
0.0982949
0.104165
0.108559
0.113211
0.111594
0.0432081
0.0552053
0.0657529
0.0756835
0.0848135
0.0930527
0.100456
0.106773
0.112662
0.115199
0.023539
0.0394727
0.0524144
0.0644797
0.0759839
0.0867753
0.0967496
0.105779
0.114066
0.120927
0.000178123
0.020618
0.0362401
0.0511546
0.0661525
0.0806523
0.0941847
0.106503
0.11787
0.127305
-0.0260016
-0.000879929
0.017932
0.0369892
0.0569592
0.0763281
0.0941438
0.110165
0.124432
0.136548
-0.0535761
-0.0238039
-0.000741428
0.024231
0.0506019
0.075642
0.0981009
0.117825
0.135004
0.149723
-0.0799565
-0.0460153
-0.0169519
0.0157429
0.0494233
0.0803716
0.10739
0.130637
0.150566
0.167837
-0.10171
-0.0643684
-0.0273321
0.0143745
0.0555239
0.0920536
0.12322
0.149617
0.172124
0.191807
-0.11512
-0.0749644
-0.0286296
0.022477
0.0705667
0.111951
0.146615
0.175661
0.200403
0.222048
-0.116789
-0.0740197
-0.0180293
0.0417769
0.0957301
0.140992
0.17836
0.20944
0.235915
0.258834
0.118065
0.114353
0.112503
0.11088
0.109119
0.107219
0.105173
0.102959
0.100499
0.0976091
0.116605
0.113185
0.111513
0.110027
0.108411
0.106679
0.104832
0.102875
0.100763
0.0981069
0.11387
0.111029
0.109696
0.108512
0.107222
0.105856
0.10443
0.102978
0.101546
0.0995493
0.110202
0.108137
0.107326
0.106645
0.105893
0.105121
0.10436
0.103639
0.103152
0.102825
0.105914
0.10474
0.104644
0.104687
0.104695
0.104728
0.10485
0.105111
0.105858
0.107007
0.101159
0.100944
0.101768
0.102748
0.103706
0.104691
0.105808
0.107147
0.10925
0.112956
0.0958502
0.0966776
0.0986457
0.100744
0.102794
0.104799
0.106925
0.109275
0.112197
0.119826
0.089627
0.0917523
0.094962
0.0983925
0.101662
0.104732
0.107833
0.111168
0.114158
0.125456
0.0818612
0.0856932
0.0903622
0.0952533
0.0998253
0.103979
0.107997
0.112111
0.115345
0.127169
0.0719733
0.0779065
0.0843083
0.090764
0.0966922
0.101949
0.106815
0.111002
0.115022
0.121549
0.0941994
0.0905858
0.0866526
0.0823842
0.0778082
0.0729536
0.0678565
0.0625613
0.0571191
0.0515855
0.0460185
0.0404748
0.0350072
0.0296621
0.0244801
0.0194851
0.0146455
0.00987102
0.00525116
0.00144118
0.0943075
0.0907625
0.0869063
0.0826607
0.0780818
0.0732065
0.0680718
0.0627244
0.0572184
0.0516129
0.0459703
0.0403524
0.0348174
0.0294174
0.0241985
0.0191929
0.0143748
0.00962703
0.00499114
0.00125157
0.0949011
0.0915017
0.0877971
0.0835841
0.0789901
0.074067
0.0688525
0.0633962
0.0577567
0.0519989
0.0461923
0.0404077
0.0347137
0.029173
0.0238431
0.0187721
0.0139546
0.00925628
0.00461862
0.000955558
0.0959735
0.0932443
0.0897728
0.085576
0.080961
0.0759759
0.0706543
0.0650479
0.0592192
0.0532389
0.047184
0.041135
0.0351728
0.0293745
0.0238118
0.0185509
0.0136296
0.00899052
0.00435452
0.000588016
0.0992114
0.0959123
0.0928832
0.0888819
0.08425
0.0792
0.0737769
0.0680162
0.0619788
0.055741
0.0493867
0.0430045
0.0366857
0.0305207
0.0245928
0.0189692
0.0136822
0.0092167
0.00447273
0.000103031
0.102905
0.099113
0.0967446
0.093159
0.0885742
0.0834971
0.0780379
0.0721902
0.0659952
0.0595354
0.0529018
0.0461878
0.0394914
0.0329143
0.0265573
0.0205161
0.014886
0.00975916
0.00491016
0.000531169
0.1067
0.101988
0.100564
0.0977658
0.0933521
0.0883143
0.0829249
0.0771012
0.0708427
0.0642429
0.0574043
0.0504218
0.0433947
0.0364298
0.0296366
0.0231182
0.0169744
0.0112745
0.00606075
0.00115616
0.109876
0.10399
0.103743
0.101943
0.097812
0.0929483
0.0877767
0.0821017
0.0758889
0.0692572
0.0623197
0.0551659
0.0478926
0.0406079
0.033426
0.0264475
0.0197814
0.0134594
0.00765688
0.00196312
0.111899
0.105829
0.106848
0.105612
0.101793
0.0973456
0.0924987
0.0869563
0.0807631
0.0741009
0.0670876
0.0598027
0.0523377
0.0447952
0.0372891
0.0299026
0.0227548
0.01582
0.00930357
0.00275138
0.108728
0.107767
0.109424
0.107465
0.104331
0.100992
0.096874
0.0917384
0.0857888
0.0792447
0.0722293
0.0648342
0.0571655
0.0493293
0.0414492
0.0335966
0.0259022
0.0183092
0.010992
0.00353305
0.118464
0.119493
0.115401
0.110977
0.107282
0.103545
0.0990893
0.0937873
0.0877784
0.0812123
0.0741906
0.0667946
0.0591171
0.051246
0.0432923
0.0353078
0.0274094
0.0195287
0.0118025
0.00389666
0.116963
0.118167
0.115174
0.111176
0.107379
0.103446
0.0988998
0.0936031
0.0876419
0.081147
0.0742188
0.0669348
0.0593726
0.0516046
0.0437212
0.0357651
0.0278264
0.0198543
0.0119494
0.00390574
0.119886
0.119183
0.116675
0.112981
0.108831
0.10437
0.0994387
0.093929
0.0878581
0.0813132
0.0743759
0.0671193
0.0596013
0.0518873
0.0440351
0.0360978
0.0281174
0.0201057
0.0120832
0.00402745
0.125163
0.122138
0.119213
0.115451
0.110915
0.105903
0.100508
0.0947005
0.0884522
0.0818027
0.0748013
0.067518
0.0599892
0.0522842
0.0444217
0.0364817
0.0284429
0.0204041
0.012266
0.00420094
0.131443
0.126601
0.122656
0.118368
0.113361
0.10783
0.101963
0.0958054
0.0893207
0.0825153
0.0754026
0.0680474
0.060463
0.0527292
0.044825
0.0368622
0.0287557
0.0206842
0.0124341
0.00434167
0.138477
0.132117
0.126865
0.121729
0.116141
0.1101
0.103764
0.0972181
0.0904406
0.083426
0.0761558
0.0686869
0.0610091
0.0532116
0.0452404
0.0372323
0.0290516
0.0209321
0.0125824
0.00444127
0.145869
0.138123
0.131555
0.125455
0.119202
0.112638
0.105832
0.0988785
0.0917695
0.0845028
0.0770374
0.0694207
0.0616204
0.0537301
0.0456718
0.0375964
0.0293363
0.0211528
0.0127161
0.00450621
0.153165
0.14424
0.136503
0.129448
0.122487
0.115372
0.108093
0.100723
0.0932617
0.0857138
0.0780247
0.070233
0.0622873
0.0542809
0.0461194
0.0379584
0.0296135
0.0213534
0.012837
0.00454714
0.160178
0.15031
0.141569
0.133611
0.125927
0.118241
0.110485
0.102699
0.0948775
0.0870312
0.0790982
0.0711107
0.0630022
0.0548619
0.046584
0.0383234
0.0298878
0.0215429
0.0129496
0.00457682
0.166881
0.156252
0.146636
0.137836
0.12944
0.121182
0.11295
0.104755
0.0965761
0.0884248
0.0802364
0.0720393
0.0637556
0.055469
0.0470653
0.0386954
0.0301637
0.0217293
0.013059
0.00460465
0.173216
0.161972
0.15159
0.142013
0.132935
0.12412
0.115429
0.106839
0.0983124
0.0898588
0.0814121
0.0729989
0.0645336
0.0560936
0.0475582
0.0390736
0.0304423
0.0219161
0.0131678
0.00463413
0.179082
0.167368
0.156327
0.146039
0.136324
0.126983
0.117857
0.108895
0.100037
0.0912922
0.0825926
0.073964
0.0653164
0.056721
0.0480527
0.0394511
0.0307195
0.0221008
0.0132752
0.00466304
0.184395
0.172348
0.160748
0.149824
0.139526
0.1297
0.120173
0.110866
0.101702
0.0926819
0.0837416
0.0749048
0.0660804
0.0573318
0.048534
0.0398161
0.0309874
0.0222758
0.013377
0.00468491
0.189117
0.176828
0.164767
0.15329
0.142472
0.132208
0.122321
0.1127
0.103258
0.0939861
0.0848236
0.0757909
0.0668006
0.0579052
0.0489859
0.0401545
0.0312362
0.0224319
0.0134678
0.00469197
0.193239
0.180747
0.16831
0.156372
0.145109
0.134461
0.124253
0.114356
0.104667
0.0951692
0.0858076
0.0765957
0.0674551
0.0584229
0.0493938
0.0404548
0.0314574
0.0225619
0.0135433
0.00467956
0.19675
0.184059
0.171324
0.159024
0.147398
0.136423
0.125937
0.115798
0.105896
0.0962026
0.0866689
0.0772989
0.0680269
0.0588715
0.0497474
0.0407095
0.0316457
0.0226636
0.0136018
0.00464925
0.199618
0.18673
0.17377
0.161205
0.149303
0.138067
0.127347
0.117001
0.106921
0.0970652
0.0873892
0.0778857
0.0685042
0.0592429
0.0500404
0.0409162
0.031799
0.0227393
0.013645
0.00460893
0.201816
0.188742
0.175617
0.16287
0.150769
0.139335
0.128438
0.117935
0.107719
0.0977364
0.0879507
0.0783424
0.0688761
0.0595307
0.0502676
0.0410739
0.0319165
0.022793
0.0136753
0.00456903
0.203374
0.190134
0.176873
0.163996
0.151761
0.140195
0.12918
0.118572
0.108264
0.0981957
0.0883355
0.0786552
0.0691309
0.059727
0.0504229
0.0411805
0.031996
0.0228273
0.0136943
0.00453759
0.204417
0.191035
0.17761
0.16461
0.152288
0.140648
0.12957
0.118905
0.108549
0.0984357
0.0885363
0.0788181
0.0692634
0.059829
0.0505033
0.0412357
0.0320369
0.0228455
0.0137039
0.00452169
0.277001
0.240112
0.209011
0.18354
0.163547
0.148248
0.136977
0.128098
0.122161
0.109957
0.291933
0.255903
0.225133
0.199144
0.178007
0.160391
0.146911
0.133589
0.126036
0.111878
0.305493
0.270612
0.240572
0.214365
0.19255
0.172796
0.157646
0.141355
0.133391
0.119771
0.317685
0.283858
0.254479
0.228054
0.205877
0.184848
0.169144
0.152136
0.143369
0.129239
0.32855
0.295608
0.266787
0.240264
0.218019
0.196557
0.18061
0.163281
0.152651
0.137717
0.338223
0.306074
0.27779
0.251378
0.22921
0.207626
0.191092
0.173209
0.160992
0.145842
0.346839
0.315445
0.287695
0.261535
0.239415
0.217738
0.200541
0.182361
0.16941
0.154238
0.354505
0.323831
0.296583
0.270728
0.248625
0.226953
0.209388
0.191253
0.177917
0.162574
0.361291
0.331292
0.304506
0.278988
0.256952
0.235431
0.217742
0.199709
0.185964
0.170472
0.367261
0.337885
0.311527
0.286376
0.264474
0.243179
0.22542
0.207449
0.193319
0.177862
0.372489
0.343692
0.317724
0.292949
0.271206
0.250146
0.232317
0.214442
0.200031
0.184726
0.377006
0.34878
0.32316
0.298753
0.277169
0.256346
0.238471
0.220749
0.20614
0.190975
0.380864
0.353155
0.327875
0.303833
0.282411
0.261832
0.243951
0.226392
0.211629
0.196536
0.384099
0.35687
0.331927
0.308246
0.286993
0.266655
0.248797
0.231373
0.216494
0.201428
0.386794
0.360012
0.335388
0.312048
0.290966
0.270854
0.253028
0.235725
0.220749
0.205719
0.389012
0.362638
0.3383
0.315277
0.294349
0.274454
0.256652
0.239484
0.2244
0.209448
0.390776
0.36477
0.340676
0.317945
0.297146
0.277467
0.259668
0.242654
0.227435
0.212583
0.392071
0.366396
0.342514
0.320051
0.299359
0.279891
0.262082
0.245222
0.229849
0.215065
0.39283
0.367449
0.34376
0.321544
0.300963
0.281692
0.263889
0.247168
0.23167
0.216905
0.393009
0.367824
0.344275
0.322247
0.301773
0.282661
0.264901
0.248297
0.23276
0.218036
0.834078
0.835615
0.829947
0.818424
0.802092
0.780477
0.751159
0.710938
0.661506
0.634408
0.785416
0.783075
0.769736
0.751828
0.730295
0.703061
0.666877
0.618394
0.559401
0.525315
0.731005
0.723394
0.704157
0.681297
0.654999
0.622197
0.579301
0.523015
0.455112
0.414599
0.668175
0.656474
0.633795
0.607569
0.577285
0.53947
0.490546
0.427496
0.351822
0.306115
0.601679
0.586652
0.561571
0.532748
0.499085
0.456964
0.402971
0.334684
0.252932
0.204021
0.535332
0.517215
0.490226
0.459309
0.422856
0.377216
0.319133
0.247151
0.162286
0.112495
0.471089
0.45021
0.421883
0.389486
0.350969
0.302804
0.241854
0.16709
0.0848376
0.0342093
0.410236
0.387199
0.358281
0.325173
0.285474
0.236013
0.173951
0.099372
0.0212616
-0.0287367
0.353942
0.329599
0.301036
0.267989
0.22803
0.17857
0.117468
0.0455876
-0.0268961
-0.0749278
0.302596
0.278995
0.251286
0.218852
0.179682
0.13168
0.0733241
0.00642416
-0.0585672
-0.104008
1.09627
1.10608
1.11717
1.12957
1.14325
1.15807
1.17354
1.18831
1.20151
1.21933
1.09361
1.10281
1.11345
1.12533
1.13836
1.15238
1.16688
1.18047
1.19232
1.20937
1.08798
1.09596
1.10569
1.11657
1.12832
1.14075
1.15329
1.16452
1.17381
1.18914
1.07881
1.08497
1.09337
1.10276
1.11263
1.12272
1.1324
1.14013
1.14562
1.15833
1.06537
1.06909
1.07576
1.08325
1.09068
1.09774
1.10367
1.10685
1.10732
1.1165
1.04679
1.04746
1.05204
1.05726
1.06176
1.06515
1.06656
1.06421
1.0585
1.06327
1.02227
1.01934
1.02161
1.02427
1.02539
1.02451
1.02066
1.01188
0.99894
0.998443
0.990451
0.983464
0.983543
0.983617
0.981036
0.975426
0.965745
0.949806
0.928677
0.922168
0.950743
0.94003
0.938495
0.935675
0.928822
0.917993
0.902001
0.8783
0.848199
0.835102
0.89813
0.888305
0.886664
0.880579
0.869046
0.852745
0.830121
0.798228
0.758572
0.738533
1.00114
1.00371
1.00685
1.01016
1.01346
1.01679
1.0202
1.02373
1.02741
1.03128
1.03534
1.03962
1.04416
1.04901
1.05422
1.05983
1.06592
1.07253
1.07975
1.08765
1.00114
1.00373
1.00685
1.01013
1.0134
1.01669
1.02007
1.02356
1.02721
1.03102
1.03502
1.03922
1.04368
1.04843
1.05351
1.05898
1.06488
1.07127
1.07819
1.08574
1.00117
1.00377
1.00682
1.01003
1.01324
1.01646
1.01977
1.02319
1.02674
1.03044
1.0343
1.03836
1.04263
1.04716
1.05199
1.05713
1.06264
1.06854
1.07485
1.08164
1.00121
1.00379
1.00674
1.00984
1.01295
1.01607
1.01927
1.02256
1.02596
1.02946
1.0331
1.03689
1.04087
1.04504
1.04942
1.05404
1.05889
1.06399
1.06927
1.07482
1.00123
1.00378
1.0066
1.00953
1.01248
1.01544
1.01844
1.02151
1.02471
1.02794
1.03125
1.03466
1.03818
1.04181
1.04554
1.04936
1.05322
1.05713
1.06087
1.06457
1.00123
1.00373
1.00635
1.00905
1.01179
1.01454
1.01731
1.02015
1.02292
1.02573
1.02859
1.03147
1.03435
1.03721
1.04001
1.0427
1.04518
1.04739
1.049
1.05004
1.00119
1.00358
1.00596
1.00836
1.01078
1.01322
1.0157
1.01809
1.02041
1.02271
1.02497
1.02714
1.02916
1.03098
1.03253
1.03367
1.03427
1.03416
1.03292
1.03043
1.00108
1.00326
1.00535
1.00744
1.00954
1.01159
1.01352
1.01537
1.01715
1.0188
1.02029
1.02152
1.02244
1.02292
1.02287
1.02204
1.02025
1.0171
1.01216
1.00485
1.00091
1.00281
1.00456
1.00619
1.00778
1.0093
1.01073
1.01201
1.0131
1.01394
1.01446
1.01452
1.01404
1.01279
1.01071
1.00736
1.00274
0.995845
0.986755
0.972887
1.00072
1.00209
1.00338
1.00455
1.00561
1.00656
1.00736
1.00792
1.00819
1.00804
1.0074
1.00607
1.00397
1.00067
0.996135
0.989362
0.980742
0.96775
0.952526
0.928601
1.00038
1.00131
1.0022
1.00285
1.00326
1.0035
1.00355
1.00329
1.00262
1.00137
0.999433
0.996539
0.992588
0.986974
0.979706
0.969391
0.956548
0.93727
0.913449
0.872098
1.00007
1.00051
1.0009
1.00094
1.00066
1.00017
0.999488
0.99843
0.996852
0.994537
0.991415
0.987138
0.981659
0.974239
0.965032
0.952401
0.93719
0.91559
0.890848
0.855626
1.00034
1.00019
0.999795
0.998954
0.997786
0.996531
0.995144
0.993311
0.990836
0.987487
0.983243
0.977708
0.9709
0.961988
0.951282
0.937081
0.920604
0.898364
0.8742
0.841143
0.999675
1.00009
0.999506
0.997297
0.99481
0.992698
0.99065
0.988055
0.984668
0.980284
0.974954
0.968241
0.960223
0.950004
0.938058
0.922659
0.905337
0.882635
0.858714
0.82648
0.998818
0.999678
0.998502
0.994699
0.991073
0.988402
0.985882
0.982593
0.978321
0.972944
0.9666
0.958811
0.949712
0.938367
0.925395
0.909061
0.891101
0.868069
0.844319
0.813032
1.00043
1.00062
0.996368
0.990752
0.986666
0.983915
0.981057
0.97705
0.971881
0.965563
0.958292
0.949535
0.939474
0.927164
0.913338
0.896285
0.877846
0.854704
0.831177
0.800958
0.995002
0.992549
0.989293
0.984734
0.981852
0.97976
0.976576
0.971658
0.965516
0.958306
0.950193
0.940565
0.929634
0.91649
0.901938
0.88435
0.865556
0.842493
0.819193
0.790031
0.99948
0.985561
0.97298
0.971705
0.974747
0.975392
0.972137
0.966201
0.959114
0.951152
0.942333
0.931952
0.920248
0.906402
0.891238
0.873276
0.85422
0.831364
0.808257
0.780112
0.995567
0.971806
0.957157
0.961415
0.96992
0.972496
0.968659
0.961486
0.953388
0.944657
0.935119
0.924005
0.911566
0.897101
0.8814
0.863172
0.843903
0.821318
0.798363
0.771171
0.995054
0.96783
0.952475
0.958875
0.968792
0.970972
0.965872
0.957516
0.948507
0.939
0.928688
0.916832
0.903693
0.888691
0.872526
0.854108
0.834667
0.812368
0.789539
0.763193
0.998649
0.980036
0.96879
0.971268
0.974378
0.971537
0.963967
0.954538
0.944766
0.934422
0.923216
0.910567
0.896755
0.88128
0.86472
0.846152
0.826575
0.804524
0.781819
0.75616
0.993179
0.998319
1.0051
1.00001
0.988196
0.975439
0.963883
0.953198
0.942609
0.931254
0.918978
0.905437
0.890944
0.875011
0.8581
0.839372
0.819686
0.79779
0.775223
0.750039
1.00245
1.02333
1.03409
1.02089
0.998129
0.978093
0.963518
0.951956
0.940797
0.928606
0.915393
0.901063
0.886002
0.869684
0.852508
0.833621
0.81388
0.792044
0.769656
0.744729
1.0078
1.03664
1.04864
1.03125
1.00279
0.978717
0.962499
0.950548
0.939066
0.926243
0.912289
0.89732
0.881808
0.865168
0.847789
0.828747
0.808986
0.787151
0.764964
0.740168
1.0094
1.04315
1.05686
1.03608
1.0034
0.976949
0.960234
0.948406
0.936893
0.923702
0.909272
0.893876
0.878043
0.861156
0.843611
0.82446
0.804689
0.782898
0.760885
0.73629
1.00493
1.04314
1.06409
1.04165
1.00399
0.974802
0.957219
0.945261
0.933715
0.920528
0.905993
0.890467
0.874456
0.857417
0.839727
0.820554
0.800765
0.77914
0.757232
0.733028
0.978786
0.988924
1.01581
1.01535
0.997111
0.975837
0.958152
0.943755
0.930709
0.917331
0.903031
0.8876
0.871442
0.85426
0.836391
0.817234
0.797396
0.776013
0.754133
0.730394
1.00106
0.950151
0.91116
0.925832
0.953334
0.963662
0.955858
0.940773
0.925876
0.912378
0.899079
0.884578
0.868737
0.851608
0.833631
0.814541
0.794685
0.773559
0.751708
0.728358
1.00525
0.951637
0.902335
0.911539
0.941495
0.955814
0.951203
0.938133
0.924001
0.910558
0.897109
0.882615
0.86685
0.849812
0.8318
0.812758
0.792877
0.771927
0.750112
0.727043
0.975322
0.989263
1.01965
1.00968
0.980794
0.958936
0.946599
0.936599
0.924947
0.911478
0.897026
0.881888
0.865945
0.848953
0.830941
0.811922
0.791998
0.771129
0.749334
0.726467
0.82802
0.776074
0.722712
0.664338
0.602043
0.539811
0.479709
0.422425
0.368823
0.319833
0.821645
0.767974
0.711841
0.656168
0.5978
0.538912
0.482281
0.428531
0.378442
0.332859
0.810077
0.75861
0.701757
0.648295
0.594309
0.539112
0.485602
0.434981
0.38795
0.344667
0.797801
0.749976
0.693842
0.641491
0.590971
0.539391
0.488781
0.440806
0.396323
0.35514
0.785959
0.741467
0.687005
0.635552
0.587697
0.539576
0.491832
0.44617
0.403846
0.364479
0.774806
0.733162
0.680997
0.630666
0.584824
0.539723
0.494738
0.451176
0.410674
0.372839
0.764384
0.725145
0.675571
0.626688
0.582448
0.539845
0.497412
0.455809
0.416869
0.380326
0.754708
0.717512
0.670638
0.623498
0.580648
0.540034
0.499836
0.460047
0.422477
0.387031
0.745825
0.710361
0.66617
0.620974
0.579408
0.540336
0.501994
0.463842
0.4275
0.393008
0.737802
0.703802
0.662159
0.618988
0.578636
0.540745
0.503868
0.467147
0.431924
0.398293
0.730737
0.697972
0.658613
0.617394
0.578181
0.541197
0.505435
0.469922
0.435702
0.402909
0.724713
0.692991
0.655529
0.61603
0.57785
0.541591
0.506676
0.472167
0.438799
0.406665
0.719684
0.688848
0.65284
0.614726
0.577452
0.541815
0.507581
0.473922
0.441365
0.409976
0.715516
0.685395
0.650431
0.613367
0.576869
0.54181
0.508169
0.475252
0.443442
0.412737
0.711938
0.682316
0.648126
0.611901
0.576096
0.541597
0.508497
0.47623
0.445077
0.414989
0.708689
0.679342
0.645826
0.61039
0.575248
0.54128
0.508654
0.476937
0.446339
0.4168
0.705782
0.676524
0.643631
0.608973
0.574457
0.540951
0.508705
0.477427
0.447276
0.418208
0.703397
0.674101
0.641695
0.607693
0.573696
0.540551
0.508589
0.477653
0.447867
0.4192
0.701842
0.672435
0.640271
0.606638
0.57293
0.539984
0.508193
0.477508
0.448014
0.419693
0.701198
0.671747
0.639651
0.606094
0.572402
0.539446
0.507669
0.477084
0.447741
0.41964
)
;

boundaryField
{
    bottom
    {
        type            symmetryPlane;
    }
    right
    {
        type            fixedValue;
        value           uniform 0;
    }
    top
    {
        type            symmetryPlane;
    }
    left
    {
        type            fixedValue;
        value           uniform 1;
    }
    cylinder
    {
        type            zeroGradient;
    }
    defaultFaces
    {
        type            empty;
    }
}


// ************************************************************************* //
