/*--------------------------------*- C++ -*----------------------------------*\
| =========                 |                                                 |
| \\      /  F ield         | OpenFOAM: The Open Source CFD Toolbox           |
|  \\    /   O peration     | Version:  4.1                                   |
|   \\  /    A nd           | Web:      www.OpenFOAM.org                      |
|    \\/     M anipulation  |                                                 |
\*---------------------------------------------------------------------------*/
FoamFile
{
    version     2.0;
    format      ascii;
    class       surfaceScalarField;
    location    "12.2";
    object      phi;
}
// * * * * * * * * * * * * * * * * * * * * * * * * * * * * * * * * * * * * * //

dimensions      [0 3 -1 0 0 0 0];

internalField   nonuniform List<scalar> 
3890
(
0.000288031
0.0015186
-0.00180663
0.00201573
-0.000214838
-0.00151286
0.00574466
-0.00501393
0.001285
0.011743
-0.0118634
0.00586508
0.0198849
-0.0197804
0.0116385
0.0296965
-0.027833
0.0180214
0.0405251
-0.0353162
0.0244876
0.0518228
-0.0418254
0.0305277
0.0630351
-0.0474934
0.036281
-0.0512689
0.040669
0.073635
0.000554356
0.00096424
0.00314973
-0.00281022
0.00833011
-0.0101943
0.016069
-0.0196023
0.0257431
-0.0294545
0.0364322
-0.0385221
0.047269
-0.0461529
0.0576558
-0.0522122
0.0670458
-0.0568833
-0.0601386
0.0759155
0.000914316
4.99244e-05
0.00455214
-0.00644804
0.0112292
-0.0168713
0.0203244
-0.0286976
0.0306224
-0.0397525
0.0409436
-0.0488432
0.0505106
-0.05572
0.0589855
-0.0606871
0.0663863
-0.0642841
-0.0668839
0.0731316
0.00136041
-0.00131049
0.00612692
-0.0112146
0.0140506
-0.024795
0.0237206
-0.0383675
0.0335376
-0.0495695
0.0424569
-0.0577626
0.0501056
-0.0633687
0.0566
-0.0671815
0.0622641
-0.0699483
-0.0721318
0.067512
0.00187849
-0.00318898
0.00769707
-0.0170331
0.016301
-0.033399
0.0256064
-0.0476729
0.0340807
-0.0580438
0.0411496
-0.0648315
0.0469266
-0.0691457
0.0518203
-0.0720753
0.0562519
-0.0743798
-0.0764999
0.06062
0.00242694
-0.00561591
0.00901837
-0.0236246
0.0175622
-0.0419428
0.0257451
-0.0558558
0.0324939
-0.0647926
0.0377695
-0.0701071
0.0420036
-0.0733798
0.0456855
-0.0757572
0.0491854
-0.0778798
-0.0800107
0.0526963
0.00294073
-0.00855664
0.00985261
-0.0305365
0.0176589
-0.0497491
0.0243164
-0.0625133
0.0293369
-0.069813
0.0330685
-0.0738387
0.036062
-0.0763733
0.0387578
-0.0784529
0.0414064
-0.0805284
-0.0827242
0.0441199
0.00333801
-0.0118947
0.0100531
-0.0372515
0.0166693
-0.0563653
0.0217012
-0.0675452
0.0251587
-0.0732705
0.0275945
-0.0762745
0.0295471
-0.078326
0.0313553
-0.0802611
0.0331726
-0.0823457
-0.0845922
0.0350406
0.00354342
-0.0154381
0.00959808
-0.0433062
0.0148147
-0.0615819
0.0182932
-0.0710238
0.020388
-0.0753654
0.0217168
-0.0776033
0.0227404
-0.0793496
0.0236952
-0.081216
0.0246589
-0.0833094
-0.0855793
0.025646
0.00351471
-0.0189528
0.00859023
-0.0483817
0.0123594
-0.065351
0.0144254
-0.0730897
0.0153368
-0.0762768
0.0156863
-0.0779528
0.0158365
-0.0794997
0.0159404
-0.0813199
0.0160339
-0.0834028
0.0161172
-0.0856627
-0.000485019
0.000485019
-0.00147722
0.000992203
-0.00274024
0.00126302
-0.00414089
0.00140065
-0.0056046
0.00146371
-0.00709521
0.00149061
-0.00860239
0.00150718
-0.0101332
0.0015308
-0.0117092
0.00157599
0.00166047
-0.0133696
-0.000437188
0.000922208
-0.00133295
0.00188796
-0.00246628
0.00239636
-0.00370295
0.00263732
-0.0049633
0.00272406
-0.00620351
0.00273082
-0.00740455
0.00270822
-0.00856636
0.00269261
-0.00970419
0.00271382
0.00281448
-0.0108582
-0.000353782
0.00127599
-0.00108165
0.00261583
-0.00198131
0.00329602
-0.00292126
0.00357726
-0.00381539
0.0036182
-0.00460714
0.00352256
-0.00526113
0.00336221
-0.00576242
0.0031939
-0.00611633
0.00306773
0.00303515
-0.00633701
-0.000258124
0.00153411
-0.00077963
0.00313734
-0.00138317
0.00389955
-0.00194187
0.00413596
-0.00236501
0.00404135
-0.0025837
0.00374125
-0.0025424
0.00332091
-0.0021984
0.0028499
-0.00153313
0.00240246
0.00212142
-0.0006194
-0.000172268
0.00170638
-0.000483218
0.00344829
-0.00076458
0.00418091
-0.000893374
0.00426476
-0.000775758
0.00392373
-0.000333335
0.00329883
0.000506102
0.00248147
0.00181144
0.00154456
0.00364504
0.000568856
-0.000267129
0.0060336
-0.000109959
0.00181634
-0.000224519
0.00356285
-0.000169381
0.00412578
0.000183312
0.00391206
0.000938444
0.0031686
0.00218613
0.00205114
0.0040114
0.000656201
0.00649401
-0.00093804
0.00971626
-0.0026534
-0.0044472
0.0138963
-7.12997e-05
0.00188764
8.41237e-06
0.00348314
0.000435219
0.00369897
0.00137581
0.00297148
0.0029628
0.0015816
0.00530814
-0.000294194
0.00850514
-0.0025408
0.0126157
-0.00504864
0.0176551
-0.00769275
-0.0108482
0.0240561
-4.29823e-05
0.00193062
0.000255211
0.00318494
0.00116249
0.00279169
0.00289441
0.00123955
0.00563289
-0.00115688
0.00951309
-0.0041744
0.014599
-0.00762674
0.0208727
-0.0113223
0.0282419
-0.0150619
-0.01966
0.0370537
1.24906e-05
0.00191813
0.000616467
0.00258097
0.00218848
0.00121968
0.00501632
-0.00158829
0.00930928
-0.00544984
0.0151567
-0.0100218
0.0225106
-0.0149806
0.0311522
-0.019964
0.0409463
-0.024856
-0.0301196
0.051406
0.000111506
0.00117962
0.00368429
0.00796109
0.0141498
0.0221493
0.0316563
0.0422201
0.0536451
0.0641945
-0.0144256
0.00105596
-0.0154773
0.00105166
-0.0165001
0.00102282
-0.0174872
0.000987119
-0.0184331
0.000945885
-0.0193317
0.000898584
-0.0201767
0.000844976
-0.0209617
0.000785055
-0.0216808
0.000719116
-0.0223287
0.000647825
-0.0229009
0.000572242
-0.0233948
0.000493868
-0.0238094
0.000414679
-0.0241466
0.000337136
-0.0244107
0.000264101
-0.0246093
0.000198665
-0.0247535
0.000144173
-0.0248577
0.000104147
-0.0249375
7.98505e-05
6.58796e-05
-0.0117653
0.00196305
-0.012687
0.00197338
-0.0136017
0.0019375
-0.0145044
0.00188988
-0.0153899
0.00183133
-0.0162515
0.00176024
-0.0170825
0.00167592
-0.0178755
0.00157806
-0.0186232
0.00146686
-0.0193186
0.00134315
-0.0199548
0.00120853
-0.0205264
0.00106542
-0.0210289
0.000917219
-0.0214602
0.000768407
-0.0218206
0.000624532
-0.0221139
0.000491949
-0.0223475
0.000377733
-0.0225335
0.000290183
-0.0226898
0.000236167
0.000209025
-0.00696089
0.00258693
-0.00761516
0.00262765
-0.00829623
0.00261856
-0.00900257
0.00259622
-0.00972982
0.00255857
-0.0104726
0.00250306
-0.0112244
0.00242771
-0.0119778
0.00233141
-0.0127247
0.00221379
-0.0134567
0.0020751
-0.0141646
0.00191647
-0.0148393
0.00174014
-0.0154718
0.00154968
-0.0160537
0.0013503
-0.0165782
0.00114909
-0.0170412
0.000954921
-0.0174416
0.000778079
-0.0177833
0.000631948
-0.0180836
0.000536458
0.000496412
-0.000793687
0.00276122
-0.00108196
0.00291592
-0.00142406
0.00296066
-0.00181442
0.00298658
-0.0022603
0.00300445
-0.00276107
0.00300383
-0.00331221
0.00297885
-0.00390842
0.00292762
-0.00454383
0.00284921
-0.00521151
0.00274278
-0.00590319
0.00260815
-0.0066093
0.00244624
-0.00731899
0.00225937
-0.00802028
0.00205159
-0.00870037
0.00182918
-0.00934657
0.00160112
-0.00994717
0.00137868
-0.0104895
0.00117432
-0.0109738
0.00102075
0.000970876
0.00622768
0.00256713
0.00630917
0.00283444
0.00632652
0.00294331
0.00629126
0.00302183
0.00618938
0.00310633
0.00601444
0.00317878
0.00576731
0.00322597
0.00544946
0.00324548
0.00506181
0.00323685
0.00460619
0.0031984
0.00408598
0.00312836
0.00350618
0.00302603
0.0028736
0.00289196
0.00219714
0.00272805
0.00148833
0.00253799
0.000761605
0.00232784
3.39561e-05
0.00210633
-0.000679239
0.00188752
-0.00134695
0.00168847
0.00155594
0.0143407
0.00212272
0.0146527
0.0025225
0.0149143
0.00268173
0.0151481
0.00278798
0.0153305
0.00292398
0.01545
0.00305927
0.0155057
0.00317026
0.0154952
0.00325591
0.0154141
0.00331803
0.015258
0.00335447
0.0150243
0.00336209
0.0147114
0.00333891
0.0143192
0.00328416
0.0138492
0.00319808
0.013305
0.00308213
0.0126932
0.00293966
0.0120235
0.00277603
0.0113122
0.00259879
0.0105875
0.00241323
0.00227445
0.0244489
0.00172987
0.024756
0.00221538
0.0250556
0.00238212
0.0253724
0.00247124
0.0256692
0.00262713
0.0259372
0.0027913
0.0261763
0.00293115
0.0263803
0.00305188
0.0265398
0.00315856
0.0266462
0.00324812
0.026692
0.00331622
0.0266708
0.00336019
0.0265764
0.0033785
0.0264041
0.00337039
0.0261503
0.00333598
0.0258127
0.0032772
0.0253917
0.00319703
0.0248877
0.00310278
0.024305
0.00299596
0.0029022
0.0371194
0.00166418
0.0372331
0.00210167
0.0374316
0.00218356
0.0376863
0.00221656
0.0379495
0.00236396
0.0382271
0.00251371
0.0385176
0.00264061
0.0388088
0.0027607
0.0390886
0.00287875
0.0393476
0.00298918
0.0395767
0.00308703
0.0397675
0.00316941
0.0399116
0.00323438
0.0400016
0.00328042
0.0400305
0.0033071
0.0399923
0.00331543
0.0398813
0.00330796
0.0396938
0.00329028
0.0394192
0.00327064
0.00325818
0.0512387
0.00183139
0.0512947
0.00204567
0.0515425
0.00193579
0.0518164
0.00194265
0.0521084
0.00207201
0.0524324
0.00218968
0.0527747
0.00229826
0.0531218
0.00241361
0.053468
0.00253257
0.0538094
0.00264781
0.054141
0.00275546
0.0544575
0.00285284
0.0547535
0.00293837
0.0550239
0.00301006
0.0552628
0.00306821
0.0554656
0.00311261
0.0556263
0.00314723
0.0557418
0.00317481
0.0558084
0.00320402
0.00326148
0.0645192
0.00150664
0.0652096
0.00135528
0.0658023
0.00134313
0.0663037
0.00144127
0.0668072
0.00156851
0.0673015
0.00169537
0.0677771
0.00182269
0.0682397
0.00195096
0.0686951
0.00207719
0.069146
0.00219692
0.0695934
0.00230808
0.0700383
0.00240789
0.0704803
0.00249633
0.0709194
0.00257103
0.0713533
0.00263427
0.0717812
0.00268472
0.0722013
0.0027271
0.072611
0.0027651
0.0730185
0.00279658
0.00286045
0.0894887
0.00243745
-0.0904195
0.0884877
0.00235623
0.0875685
0.00226234
0.08678
0.00222981
0.0861062
0.00224223
0.0855221
0.0022795
0.0850103
0.00233452
0.0845607
0.00240049
0.0841655
0.00247248
0.0838175
0.0025449
0.0835096
0.00261595
0.0832367
0.00268083
0.0829927
0.00274032
0.0827739
0.00278979
0.0825748
0.00283338
0.0823925
0.00286697
0.082223
0.00289662
0.0820646
0.00292349
0.0819183
0.00294287
0.00298006
0.0990633
0.00264659
-0.0992724
0.0987341
0.00268545
0.0983319
0.00266447
0.0979339
0.00262786
0.0975622
0.00261388
0.0972156
0.00262616
0.096893
0.00265708
0.096596
0.00269749
0.0963245
0.00274403
0.0960778
0.00279161
0.0958532
0.00284048
0.0956494
0.00288471
0.0954625
0.00292718
0.0952915
0.00296082
0.0951322
0.00299268
0.0949847
0.00301448
0.0948447
0.00303656
0.0947163
0.00305194
0.0945935
0.00306565
0.00308661
0.105913
0.00285071
-0.106117
0.10579
0.00280842
0.105674
0.00278012
0.105561
0.00274089
0.10546
0.00271493
0.105373
0.00271282
0.105299
0.00273133
0.105236
0.00276061
0.105183
0.00279725
0.105139
0.00283526
0.105103
0.00287617
0.105075
0.00291312
0.105051
0.00295065
0.105032
0.00297984
0.105015
0.0030097
0.105001
0.00302923
0.104986
0.0030511
0.104974
0.00306439
0.104961
0.00307865
0.00309647
0.111388
0.00295201
-0.111489
0.111373
0.00282271
0.111398
0.00275551
0.111434
0.00270495
0.111481
0.00266757
0.111544
0.00264968
0.111623
0.00265267
0.111715
0.00266886
0.111817
0.00269512
0.111928
0.00272447
0.112045
0.00275863
0.112168
0.0027905
0.112294
0.0028248
0.112421
0.00285271
0.112548
0.00288229
0.112674
0.00290377
0.112798
0.00292677
0.112918
0.00294439
0.113037
0.00295951
0.00298191
0.116237
0.00291933
-0.116205
0.116306
0.00275417
0.116407
0.00265448
0.116524
0.00258741
0.116653
0.00253868
0.116796
0.00250696
0.116954
0.00249455
0.117127
0.00249641
0.117311
0.00251029
0.117506
0.00252936
0.11771
0.00255462
0.117921
0.00257981
0.118138
0.00260841
0.118357
0.00263362
0.118579
0.00266033
0.118799
0.00268292
0.119022
0.0027047
0.119239
0.00272654
0.119458
0.00274067
0.00276871
0.121013
0.00280931
-0.120903
0.121131
0.00263545
0.121271
0.00251442
0.121429
0.00243036
0.121597
0.00236987
0.121778
0.00232661
0.121971
0.00230098
0.122178
0.00228951
0.122398
0.00229078
0.122628
0.00229902
0.122868
0.00231423
0.123117
0.00233151
0.123373
0.00235246
0.123633
0.002373
0.123899
0.00239443
0.124167
0.0024156
0.124437
0.00243389
0.124707
0.00245682
0.124979
0.0024687
0.00249874
0.125966
0.00266392
-0.125821
0.126113
0.00248859
0.126272
0.00235519
0.126445
0.00225768
0.126629
0.00218631
0.126822
0.00213321
0.127026
0.00209665
0.127242
0.00207368
0.12747
0.0020633
0.127707
0.00206112
0.127955
0.00206629
0.128212
0.00207529
0.128476
0.00208801
0.128746
0.00210259
0.129023
0.00211771
0.129304
0.00213525
0.129588
0.00214903
0.129875
0.00216993
0.130165
0.00217909
0.00220707
0.131101
0.00249354
-0.130931
0.131268
0.00232114
0.131441
0.00218289
0.131621
0.00207695
0.131811
0.00199703
0.132008
0.0019359
0.132214
0.00189061
0.13243
0.00185829
0.132655
0.00183797
0.132889
0.00182647
0.133133
0.0018225
0.133385
0.00182357
0.133645
0.00182849
0.13391
0.00183671
0.134183
0.00184559
0.134459
0.00185828
0.134741
0.00186751
0.135027
0.00188442
0.135315
0.00189093
0.00191442
0.136289
0.00229715
-0.136092
0.136478
0.00213203
0.136666
0.00199436
0.136858
0.00188467
0.137056
0.0017993
0.13726
0.00173246
0.137469
0.0016808
0.137686
0.00164147
0.137911
0.00161339
0.138143
0.00159427
0.138383
0.00158268
0.13863
0.00157683
0.138883
0.00157506
0.139142
0.00157735
0.139407
0.00158074
0.139677
0.00158843
0.139951
0.00159363
0.140229
0.00160599
0.14051
0.00161018
0.00162854
0.141374
0.00207042
-0.141147
0.141591
0.00191486
0.141804
0.00178132
0.142017
0.00167189
0.142232
0.00158459
0.142449
0.00151487
0.142671
0.00145943
0.142896
0.00141566
0.143127
0.0013823
0.143364
0.00135773
0.143606
0.00134047
0.143854
0.00132932
0.144106
0.00132238
0.144364
0.00131992
0.144626
0.00131897
0.144891
0.00132249
0.145161
0.00132446
0.145434
0.0013329
0.145709
0.00133525
0.00134925
0.14626
0.00180557
-0.145995
0.146514
0.00166109
0.146761
0.00153464
0.147003
0.00142929
0.147244
0.00134373
0.147485
0.00127438
0.147726
0.0012181
0.147969
0.00117274
0.148214
0.00113682
0.148463
0.00110939
0.148715
0.00108876
0.148969
0.00107445
0.149228
0.00106417
0.149489
0.00105878
0.149753
0.00105491
0.150019
0.00105583
0.150288
0.00105555
0.15056
0.00106157
0.150832
0.0010626
0.00107395
0.150978
0.00149679
-0.150669
0.151273
0.00136601
0.151557
0.00125013
0.151834
0.00115272
0.152105
0.00107263
0.152372
0.00100714
0.152637
0.000953207
0.1529
0.000909386
0.153163
0.000873831
0.153426
0.000846419
0.15369
0.000824942
0.153954
0.000809989
0.15422
0.000798402
0.154487
0.000792294
0.154755
0.000787071
0.155023
0.000787414
0.155293
0.000785975
0.155563
0.000791571
0.155833
0.000791854
0.000802693
0.155708
0.00115108
-0.155363
0.156037
0.00103766
0.156351
0.000936154
0.156653
0.000850296
0.156947
0.000779059
0.157233
0.000720731
0.157514
0.000672219
0.157791
0.000632976
0.158064
0.000600579
0.158334
0.000575985
0.158603
0.000556083
0.15887
0.000542954
0.159137
0.000532035
0.159401
0.000527373
0.159666
0.000522318
0.15993
0.000524055
0.160193
0.0005225
0.160455
0.000529576
0.160717
0.000529633
0.000541947
0.160719
0.000796663
-0.160365
0.161053
0.000703506
0.16137
0.000619169
0.161673
0.000547377
0.161965
0.000487316
0.162247
0.000438439
0.162522
0.000397571
0.16279
0.00036508
0.163053
0.000337871
0.16331
0.000318086
0.163565
0.000301525
0.163816
0.000291942
0.164065
0.000283117
0.164311
0.000281352
0.164556
0.000277547
0.164798
0.000281912
0.165039
0.000280976
0.165278
0.000290634
0.165517
0.000290843
0.000305696
0.166163
0.000478385
-0.165845
0.166461
0.000405743
0.166741
0.000339102
0.167006
0.000281921
0.16726
0.000233607
0.167504
0.000194788
0.167739
0.000162303
0.167967
0.000137145
0.168189
0.000115799
0.168406
0.000101394
0.168619
8.87819e-05
0.168827
8.31461e-05
0.169034
7.68847e-05
0.169237
7.82033e-05
0.169438
7.59814e-05
0.169637
8.29434e-05
0.169835
8.28467e-05
0.170031
9.48486e-05
0.170227
9.5336e-05
0.000112329
0.171869
0.000236375
-0.171627
0.172093
0.000181797
0.1723
0.000131214
0.172495
8.749e-05
0.172678
5.00204e-05
0.172853
2.03155e-05
0.173019
-4.19168e-06
0.17318
-2.29693e-05
0.173334
-3.89475e-05
0.173484
-4.87009e-05
0.173631
-5.77988e-05
0.173774
-6.03134e-05
0.173916
-6.44045e-05
0.174055
-6.09976e-05
0.174193
-6.19747e-05
0.174329
-5.36321e-05
0.174465
-5.31279e-05
0.174601
-4.02659e-05
0.174735
-3.95951e-05
-2.22011e-05
0.177331
8.44663e-05
-0.177179
0.177468
4.4752e-05
0.177591
8.00466e-06
0.177702
-2.37454e-05
0.177804
-5.14149e-05
0.177897
-7.30002e-05
0.177984
-9.11412e-05
0.178065
-0.000104184
0.178142
-0.000115649
0.178215
-0.000121959
0.178286
-0.000128278
0.178354
-0.000128956
0.178421
-0.000131532
0.178488
-0.000127504
0.178554
-0.000127795
0.17862
-0.000119772
0.178686
-0.000119067
0.178753
-0.000107326
0.17882
-0.000106666
-9.11604e-05
0.181957
1.10188e-05
-0.181884
0.182019
-1.64366e-05
0.182067
-4.06688e-05
0.182105
-6.1576e-05
0.182133
-7.97746e-05
0.182154
-9.38814e-05
0.182169
-0.000105867
0.182179
-0.000114155
0.182185
-0.00012159
0.182188
-0.000125328
0.182189
-0.000129334
0.18219
-0.000129209
0.182189
-0.000130715
0.182189
-0.000127314
0.182188
-0.000127311
0.18219
-0.000121098
0.182191
-0.000120479
0.182195
-0.00011162
0.1822
-0.0001111
-9.95563e-05
0.185299
-4.62499e-06
-0.185283
0.185305
-2.24881e-05
0.1853
-3.55425e-05
0.185284
-4.56075e-05
0.185259
-5.44007e-05
0.185226
-6.13121e-05
0.185187
-6.72619e-05
0.185145
-7.12939e-05
0.185098
-7.49486e-05
0.185049
-7.66756e-05
0.184999
-7.86036e-05
0.184948
-7.83606e-05
0.184896
-7.90244e-05
0.184846
-7.71095e-05
0.184796
-7.7016e-05
0.184748
-7.36687e-05
0.184701
-7.32666e-05
0.184658
-6.8572e-05
0.184615
-6.82205e-05
-6.2098e-05
0.187057
-0.187062
0.187035
0.186999
0.186954
0.186899
0.186838
0.186771
0.186699
0.186624
0.186548
0.186469
0.186391
0.186312
0.186235
0.186158
0.186084
0.186011
0.185942
0.185874
0.0892056
0.015017
-0.0881054
0.0903415
0.0245101
0.091531
0.0338512
0.0927269
0.0429239
0.0939611
0.0514621
0.095104
0.0594771
0.0959317
0.0666842
0.0964674
0.072596
0.0938334
0.0785495
0.0770489
0.0919113
0.0140204
-0.0909147
0.09299
0.0234314
0.0941827
0.0326585
0.0954548
0.0416519
0.0967569
0.05016
0.0982286
0.0580053
0.0992902
0.0656226
0.100897
0.0709888
0.100936
0.0785112
0.0787121
0.0948603
0.0131181
-0.093958
0.0959006
0.0223911
0.0970659
0.0314932
0.0984149
0.0403028
0.099746
0.0488289
0.101435
0.0563168
0.102815
0.0642417
0.104601
0.0692033
0.106168
0.0769438
0.0787637
0.0979343
0.0122826
-0.0970988
0.0989774
0.021348
0.10015
0.0303211
0.101584
0.0388686
0.103019
0.0473941
0.104776
0.0545594
0.106494
0.0625238
0.108185
0.0675118
0.110337
0.0747917
0.0776124
0.10104
0.011484
-0.100241
0.102111
0.0202766
0.103353
0.0290793
0.104876
0.0373462
0.106499
0.0457708
0.108292
0.0527667
0.110284
0.0605318
0.112058
0.0657379
0.114364
0.0724856
0.0757714
0.104098
0.0106934
-0.103308
0.105208
0.0191665
0.106567
0.0277205
0.108194
0.0357197
0.110045
0.0439195
0.111974
0.0508374
0.114208
0.0582976
0.116272
0.0636743
0.118683
0.0700743
0.0735521
0.107038
0.00988847
-0.106233
0.108197
0.0180069
0.109692
0.0262259
0.111459
0.0339525
0.113545
0.0418334
0.11573
0.0486524
0.118222
0.0558054
0.120658
0.061239
0.123294
0.0674381
0.0710249
0.109814
0.00905692
-0.108983
0.111037
0.0167839
0.112666
0.0245969
0.114608
0.0320108
0.116925
0.0395168
0.11942
0.0461574
0.122208
0.0530174
0.125034
0.0584123
0.128035
0.0644376
0.068129
0.112436
0.0081949
-0.111574
0.113731
0.0154886
0.115483
0.022845
0.117606
0.0298874
0.120144
0.0369797
0.122943
0.0433577
0.12606
0.0499007
0.129288
0.0551847
0.13274
0.0609849
0.0647772
0.114982
0.00730517
-0.114093
0.116346
0.0141253
0.118201
0.0209891
0.120485
0.0276038
0.123222
0.0342431
0.126291
0.0402879
0.129738
0.0464544
0.133358
0.051564
0.137282
0.0570614
0.060912
0.117608
0.00639857
-0.116702
0.119022
0.0127119
0.120956
0.0190553
0.123361
0.0251985
0.126262
0.0313421
0.129552
0.0369977
0.133286
0.0427199
0.137261
0.0475891
0.141614
0.0527088
0.0565304
0.120518
0.00548856
-0.119608
0.121953
0.0112766
0.123934
0.0170741
0.126421
0.0227116
0.129442
0.0283208
0.1329
0.0335401
0.136856
0.0387641
0.141123
0.0433221
0.145825
0.048007
0.0516863
0.123885
0.0046115
-0.123008
0.125314
0.00984701
0.127316
0.015072
0.129857
0.0201709
0.132964
0.0252141
0.136551
0.0299528
0.14067
0.0346449
0.145171
0.0388215
0.150141
0.0430368
0.0464647
0.127741
0.00379955
-0.126929
0.129146
0.00844219
0.131157
0.0130605
0.133748
0.0175796
0.136934
0.0220281
0.140648
0.0262391
0.144916
0.0303766
0.149628
0.0341103
0.15483
0.0378343
0.0409301
0.131879
0.00306864
-0.131148
0.133259
0.00706265
0.13529
0.0110294
0.137953
0.014916
0.141247
0.0187344
0.14512
0.0223657
0.149575
0.0259216
0.154526
0.0291597
0.159994
0.0323665
0.035079
0.135891
0.00240709
-0.135229
0.137264
0.00568922
0.139342
0.00895144
0.142111
0.0121468
0.145556
0.0152894
0.149636
0.0182858
0.154339
0.0212186
0.159588
0.0239107
0.165394
0.0265602
0.0288467
0.139361
0.00178247
-0.138737
0.140755
0.004296
0.142906
0.0068004
0.145802
0.00925048
0.149426
0.011666
0.153738
0.0139735
0.158724
0.0162321
0.164311
0.018324
0.170504
0.0203668
0.0221723
0.14208
0.00117075
-0.141468
0.143503
0.00287265
0.14573
0.0045733
0.148746
0.00623447
0.152536
0.00787584
0.157063
0.00944649
0.162313
0.0109826
0.168219
0.0124182
0.174777
0.0138081
0.0150656
0.144009
0.000576014
-0.143414
0.145447
0.00143455
0.147725
0.00229585
0.150823
0.00313571
0.154733
0.00396663
0.159416
0.00476269
0.164859
0.00554034
0.171005
0.00627192
0.177838
0.00697525
0.00761999
0.145059
-0.144483
0.146493
0.148789
0.151925
0.155892
0.160654
0.166195
0.172467
0.179442
0.0420309
0.0516704
-0.0456561
-0.0480451
0.036063
0.0503736
-0.0444057
0.0304946
0.0495363
-0.0439679
0.025233
0.0492482
-0.0439867
0.0201652
0.0494242
-0.0443564
0.0152258
0.0500477
-0.0451084
0.0104013
0.0509777
-0.0461532
0.00581615
0.0510742
-0.046489
0.00195743
0.0462208
-0.0423621
0.0264855
-0.0245281
0.0401363
0.0575719
-0.0460378
0.0343575
0.0561523
0.0288553
0.0550386
0.0236694
0.0544341
0.018728
0.0543656
0.0139543
0.0548215
0.00933838
0.0555936
0.00504059
0.055372
0.00157864
0.0496828
0.0280642
0.0373384
0.0631176
-0.0428842
0.0318616
0.0616291
0.0265767
0.0603234
0.0215678
0.0594431
0.0168189
0.0591144
0.0122763
0.059364
0.00794975
0.0599202
0.00404325
0.0592785
0.00109844
0.0526276
0.0291626
0.033473
0.0682716
-0.038627
0.0284223
0.0666798
0.0235153
0.0652304
0.0188316
0.0641268
0.01439
0.0635561
0.0101713
0.0635827
0.00622566
0.0638658
0.00282284
0.0626813
0.000516415
0.054934
0.029679
0.0286238
0.0729612
-0.0333134
0.0240704
0.0712333
0.019656
0.0696448
0.0154293
0.0683536
0.0114164
0.0675689
0.00762914
0.06737
0.00416338
0.0673316
0.00137003
0.0654747
-0.000153103
0.0564571
0.0295259
0.0228231
0.0770662
-0.0269281
0.0188678
0.0751885
0.0150487
0.0734639
0.0113878
0.0720145
0.00791098
0.0710457
0.00466244
0.0706186
0.00179714
0.0701969
-0.000306358
0.0675782
-0.00082423
0.056975
0.0287017
0.0161887
0.080468
-0.0195906
0.0129216
0.0784557
0.00977963
0.0766059
0.00677196
0.0750221
0.00392316
0.0738945
0.0013146
0.0732271
-0.000814985
0.0723265
-0.00193145
0.0686946
-0.00151597
0.0565595
0.0271857
0.00883207
0.0830689
-0.011433
0.00632927
0.0809584
0.00394337
0.0789918
0.00166592
0.0772996
-0.000475704
0.0760361
-0.0023525
0.0751039
-0.00362359
0.0735975
-0.00372127
0.0687923
-0.00219001
0.0550283
0.0249957
0.000876728
0.0848633
-0.00267108
-0.000776396
0.0826116
-0.00235477
0.0805701
-0.00386245
0.0788072
-0.00523578
0.0774095
-0.00628212
0.0761503
-0.00658248
0.0738979
-0.00551101
0.0677208
-0.00279095
0.0523082
0.0222048
-0.00745314
0.00665371
-0.00824437
-0.0089941
-0.0096866
-0.01023
-0.0103565
-0.00954831
-0.00717848
-0.00325198
0.0326461
0.00309462
-0.0357407
0.0294292
0.00321694
0.0260705
0.00335863
0.0225496
0.00352091
0.0188384
0.00371124
0.0149031
0.00393528
0.0107244
0.00417866
0.00638887
0.00433556
0.00235594
0.00403293
0.00235594
0.033221
0.00631969
-0.036446
0.029889
0.00654894
0.0264304
0.00681721
0.0228244
0.00712693
0.0190423
0.0074933
0.0150493
0.00792831
0.0108227
0.00840523
0.0064457
0.00871258
0.00238384
0.00809479
0.00473978
0.0343091
0.00979283
-0.0377822
0.030758
0.0101
0.0271089
0.0104663
0.0233402
0.0108956
0.0194223
0.0114112
0.0153184
0.0120321
0.0110032
0.0127204
0.00655406
0.0131617
0.00242723
0.0122216
0.00716701
0.0357918
0.0136047
-0.0396037
0.0319403
0.0139514
0.0280288
0.0143778
0.0240358
0.0148887
0.0199306
0.0155164
0.0156747
0.0162881
0.0112383
0.0171568
0.00669155
0.0177085
0.00248246
0.0164307
0.00964947
0.0375062
0.0178117
-0.0417131
0.0333018
0.0181558
0.029081
0.0185986
0.0248236
0.0191462
0.0204985
0.0198415
0.0160647
0.0207218
0.0114884
0.0217331
0.00683229
0.0223646
0.00253663
0.0207264
0.0121861
0.0392666
0.022428
-0.043883
0.0346894
0.022733
0.0301383
0.0231497
0.0255992
0.0236853
0.0210415
0.0243991
0.0164221
0.0253412
0.0117036
0.0264517
0.00694315
0.0271251
0.00257424
0.0250953
0.0147603
0.0408592
0.0274476
-0.0458788
0.0359128
0.0276794
0.0310452
0.0280173
0.0262433
0.0284871
0.0214696
0.0291729
0.0166781
0.0301327
0.0118324
0.0312974
0.00698907
0.0319684
0.00257888
0.0295055
0.0173392
0.0421654
0.0328496
-0.0475673
0.0368472
0.0329977
0.0316803
0.0331842
0.0266438
0.0335236
0.0216851
0.0341316
0.016755
0.0350628
0.0118178
0.0362346
0.00693303
0.0368531
0.00253361
0.0339049
0.0198728
0.0427891
0.0387358
-0.0486754
0.0371793
0.0386074
0.0318483
0.0385151
0.0266689
0.0387031
0.0215876
0.0392129
0.0165745
0.0400759
0.0116017
0.0412074
0.00673743
0.0417174
0.00242196
0.0382204
0.0222948
0.042803
-0.0497233
0.0370048
0.031552
0.0262684
0.0211249
0.0160924
0.0111467
0.00637504
0.00223331
0.0393356
-0.000105287
0.03944
-0.00010437
0.0395414
-0.000101439
0.0396356
-9.42369e-05
0.039719
-8.33706e-05
0.039788
-6.89653e-05
0.0398386
-5.05916e-05
0.039866
-2.74363e-05
0.0398638
2.21789e-06
0.0398321
3.16616e-05
0.0397634
6.86968e-05
0.0396503
0.000113136
0.0394844
0.000165946
0.0392558
0.000228503
0.0389533
0.000302552
0.0385631
0.000390218
0.0380689
0.000494219
0.0374511
0.000617712
0.0366861
0.000765036
0.000945384
0.0401845
-0.000211593
0.0402884
-0.000208255
0.0403878
-0.000200874
0.0404795
-0.000185887
0.04056
-0.000163939
0.0406259
-0.000134844
0.040673
-9.76741e-05
0.0406964
-5.0809e-05
0.0406907
7.83508e-06
0.0406544
6.7989e-05
0.0405802
0.000142943
0.0404605
0.000232804
0.0402869
0.000339536
0.0400495
0.000465898
0.0397367
0.000615388
0.0393347
0.00079224
0.0388269
0.00100194
0.038194
0.00125066
0.0374119
0.00154709
0.0019113
0.0418538
-0.000309711
0.0419499
-0.000304325
0.0420419
-0.00029286
0.0421259
-0.000269934
0.0421984
-0.000236451
0.0422556
-0.000192054
0.0422932
-0.000135239
0.0423056
-6.32332e-05
0.0422901
2.33672e-05
0.0422419
0.000116192
0.0421541
0.00023072
0.042019
0.000367869
0.041828
0.000530617
0.0415707
0.000723121
0.0412355
0.000950654
0.0408082
0.00121954
0.040272
0.00153809
0.0396074
0.00191532
0.0387906
0.00236379
0.00291974
0.0442835
-0.000389296
0.044361
-0.000381833
0.0444346
-0.00036646
0.0445002
-0.000335509
0.0445536
-0.000289884
0.0445908
-0.000229194
0.044607
-0.000151497
0.044597
-5.32266e-05
0.0445609
5.94834e-05
0.0444889
0.000188214
0.0443747
0.000344894
0.0442107
0.00053194
0.0439877
0.000753539
0.0436955
0.00101534
0.0433218
0.00132441
0.0428521
0.0016892
0.0422693
0.00212086
0.0415531
0.00263154
0.0406816
0.00323535
0.00399763
0.0473923
-0.000433577
0.0474343
-0.000423779
0.047472
-0.000404163
0.0475014
-0.00036495
0.0475183
-0.000306764
0.0475181
-0.000229021
0.0474962
-0.00012959
0.0474408
2.21766e-06
0.0473658
0.000134445
0.047251
0.000303019
0.0470909
0.000504998
0.0468779
0.000744908
0.0466029
0.00102855
0.0462549
0.00136333
0.0458215
0.00175788
0.0452874
0.00222324
0.0446356
0.00277267
0.0438435
0.00342361
0.0428936
0.00418533
0.00517808
0.0510863
-0.000418519
0.0510681
-0.000405643
0.0510442
-0.000380278
0.0510108
-0.00033151
0.0509634
-0.000259333
0.050897
-0.000162668
0.0508032
-3.5788e-05
0.0506976
0.000107789
0.0505517
0.000280358
0.0503652
0.000489499
0.0501314
0.000738849
0.0498417
0.00103457
0.049487
0.00138322
0.0490556
0.00179476
0.048535
0.0022785
0.0479083
0.00284992
0.0471597
0.00352128
0.0462614
0.00432187
0.0452052
0.00524153
0.00650032
0.0552695
-0.000311317
0.0551576
-0.000293757
0.0550378
-0.000260458
0.0549081
-0.000201877
0.0547628
-0.000114026
0.0545906
9.51871e-06
0.0544095
0.000145378
0.0541974
0.000319876
0.0539476
0.000530164
0.0536552
0.000781885
0.0533135
0.00108055
0.0529131
0.00143493
0.0524453
0.00185102
0.0518967
0.00234339
0.0512568
0.00291839
0.0505047
0.0036021
0.0496296
0.0043963
0.0485901
0.00536137
0.0473902
0.00644143
0.00801176
0.0598539
-6.80715e-05
0.0596056
-4.54857e-05
0.0593416
3.48843e-06
0.0590689
7.08917e-05
0.0587831
0.000171782
0.0584868
0.000305819
0.0581592
0.000472901
0.0578006
0.00067848
0.0574052
0.000925568
0.0569656
0.00122148
0.0564756
0.00157062
0.0559242
0.00198629
0.055304
0.00247121
0.0545971
0.00305025
0.0537983
0.00371728
0.0528772
0.00452314
0.0518405
0.00543298
0.0506224
0.0065795
0.0492617
0.00780214
0.00970612
0.0647596
0.000355577
0.0643216
0.000392461
0.0638775
0.000447616
0.0634201
0.000528251
0.0629488
0.000643158
0.0624572
0.000797379
0.061939
0.000991073
0.0613891
0.00122843
0.0608026
0.00151203
0.0601713
0.00185277
0.0594901
0.0022518
0.0587464
0.00273
0.0579368
0.00328088
0.0570353
0.00395171
0.0560468
0.00470578
0.0549159
0.00565404
0.0536836
0.00666529
0.0522026
0.00806052
0.050664
0.00934073
0.0116947
0.0699889
0.00107762
0.0692937
0.00108765
0.0686022
0.00113913
0.0679032
0.00122731
0.06719
0.00135636
0.0664563
0.001531
0.0656978
0.00174965
0.0649089
0.00201731
0.064086
0.00233495
0.0632199
0.00271887
0.0623071
0.00316453
0.0613326
0.00370456
0.0602995
0.00431393
0.0591797
0.00507158
0.0580022
0.00588324
0.0566889
0.00696737
0.0553578
0.00799634
0.0537338
0.00968453
0.052229
0.0108455
0.0142004
0.0697498
0.001077
0.0697526
0.00108487
0.069754
0.00113775
0.0697565
0.00122479
0.0697575
0.00135536
0.0697547
0.00153379
0.0697508
0.00175359
0.0697477
0.00202037
0.0697505
0.00233216
0.0697594
0.00270997
0.0697838
0.00314016
0.0698218
0.00366656
0.0698965
0.00423923
0.0699978
0.0049703
0.0701817
0.00569932
0.0704071
0.00674191
0.0708218
0.00758167
0.0713474
0.00915897
0.0724501
0.0097428
0.0122282
0.0744223
0.0751931
0.00101903
0.075203
0.00107494
0.075215
0.00112579
0.0752353
0.00120443
0.0752534
0.00133731
0.075266
0.00152117
0.0752788
0.0017408
0.0752955
0.00200364
0.0753212
0.0023065