/*--------------------------------*- C++ -*----------------------------------*\
| =========                 |                                                 |
| \\      /  F ield         | OpenFOAM: The Open Source CFD Toolbox           |
|  \\    /   O peration     | Version:  4.1                                   |
|   \\  /    A nd           | Web:      www.OpenFOAM.org                      |
|    \\/     M anipulation  |                                                 |
\*---------------------------------------------------------------------------*/
FoamFile
{
    version     2.0;
    format      ascii;
    class       volScalarField;
    location    "1.6";
    object      p;
}
// * * * * * * * * * * * * * * * * * * * * * * * * * * * * * * * * * * * * * //

dimensions      [0 2 -2 0 0 0 0];

internalField   nonuniform List<scalar> 
2000
(
0.225825
0.232224
0.238576
0.24524
0.251222
0.255743
0.258589
0.259847
0.259549
0.258118
0.230849
0.237563
0.244731
0.252518
0.259713
0.265431
0.269418
0.271721
0.272353
0.272009
0.237359
0.244395
0.252433
0.261385
0.269808
0.276718
0.281829
0.285181
0.286815
0.287516
0.245551
0.252905
0.261845
0.271975
0.281603
0.289659
0.295837
0.300182
0.302776
0.304454
0.255604
0.263261
0.273114
0.284401
0.29518
0.30431
0.311482
0.316752
0.320248
0.322824
0.267681
0.275611
0.286362
0.298752
0.310595
0.320703
0.328775
0.334891
0.339227
0.342628
0.281916
0.290073
0.301681
0.315084
0.327876
0.338844
0.347708
0.354579
0.359688
0.363834
0.298409
0.30673
0.319124
0.333419
0.347018
0.35871
0.368245
0.375774
0.381581
0.386387
0.317218
0.325625
0.338705
0.35374
0.367981
0.380244
0.390321
0.3984
0.404823
0.410186
0.338355
0.346752
0.360392
0.375983
0.390685
0.403356
0.413837
0.422356
0.429303
0.435112
0.215968
0.22052
0.222814
0.22349
0.22246
0.219713
0.215457
0.209977
0.203541
0.196378
0.215898
0.220502
0.222859
0.22365
0.222765
0.220173
0.216075
0.210744
0.204452
0.197413
0.215799
0.22048
0.222978
0.223997
0.223398
0.221117
0.217329
0.212296
0.206288
0.199498
0.215721
0.220512
0.223228
0.224586
0.22441
0.222588
0.219258
0.21466
0.20907
0.202645
0.215744
0.220681
0.223688
0.225496
0.225875
0.224651
0.221914
0.21788
0.212829
0.206878
0.215979
0.221094
0.224467
0.226832
0.227891
0.227391
0.225366
0.222007
0.217601
0.21222
0.216561
0.221884
0.225698
0.228725
0.230575
0.230906
0.229694
0.227103
0.223429
0.218698
0.217651
0.223209
0.227539
0.231326
0.234067
0.235315
0.234984
0.233216
0.230334
0.226304
0.219429
0.225245
0.23017
0.234817
0.238542
0.240781
0.241382
0.240462
0.238335
0.234845
0.222086
0.228185
0.233784
0.239394
0.244204
0.247535
0.249186
0.24925
0.24789
0.244463
0.188665
0.180343
0.171633
0.162653
0.153454
0.144075
0.134549
0.124904
0.115163
0.105344
0.0954619
0.0855283
0.0755534
0.0655459
0.0555135
0.0454632
0.0354005
0.0253292
0.0152484
0.00516643
0.189726
0.18139
0.172656
0.163646
0.15441
0.144986
0.13541
0.12571
0.115912
0.106033
0.0960894
0.0860923
0.0760523
0.065978
0.0558764
0.0457538
0.03562
0.0254859
0.015342
0.0051975
0.191864
0.183501
0.174716
0.165644
0.156332
0.146817
0.137138
0.127329
0.117414
0.107414
0.0973455
0.0872205
0.0770504
0.0668443
0.0566104
0.0463546
0.0360783
0.0258141
0.015537
0.00525669
0.195083
0.186677
0.177812
0.168644
0.159215
0.149561
0.139728
0.129754
0.119666
0.109486
0.0992307
0.0889151
0.0785502
0.0681453
0.0577074
0.0472419
0.0367529
0.0262893
0.0158206
0.00534355
0.199403
0.190932
0.181954
0.172652
0.163059
0.153217
0.143176
0.132979
0.122658
0.112236
0.101732
0.0911621
0.0805407
0.069879
0.0591873
0.0484759
0.037751
0.0269445
0.0162006
0.00546092
0.204837
0.196276
0.187147
0.177668
0.167865
0.157784
0.147484
0.137013
0.126404
0.115683
0.104871
0.0939871
0.0830441
0.0720539
0.0610263
0.04997
0.0388962
0.0278141
0.0166918
0.00561229
0.211389
0.202713
0.193393
0.183684
0.173614
0.163235
0.152614
0.141803
0.130839
0.119751
0.108565
0.0972991
0.0859703
0.0745914
0.0631734
0.0517255
0.0402554
0.0287664
0.0172663
0.00577431
0.21904
0.210247
0.200698
0.190702
0.180323
0.169618
0.158647
0.147464
0.136108
0.124613
0.113006
0.101307
0.0895343
0.0777024
0.0658229
0.053906
0.0419604
0.0299948
0.0180111
0.00602447
0.227492
0.218777
0.209008
0.198593
0.18776
0.176596
0.165159
0.1535
0.141664
0.129685
0.11759
0.105403
0.0931422
0.080822
0.0684553
0.0560518
0.04362
0.0311673
0.0187033
0.00624618
0.236063
0.228235
0.218813
0.208288
0.197168
0.185627
0.173749
0.161604
0.149245
0.136713
0.124039
0.111249
0.0983619
0.0853966
0.0723671
0.0592854
0.0461618
0.0330046
0.0198198
0.0066217
0.247294
0.237078
0.226484
0.215067
0.203178
0.190991
0.178553
0.165903
0.15308
0.140117
0.127042
0.113875
0.100634
0.0873323
0.0739827
0.0605943
0.0471751
0.0337313
0.0202661
0.00678429
0.252125
0.240362
0.228836
0.216911
0.204664
0.192207
0.179565
0.166756
0.153805
0.140737
0.127573
0.11433
0.101021
0.0876576
0.0742505
0.0608073
0.0473344
0.0338368
0.0203177
0.0067828
0.256254
0.243764
0.231605
0.219197
0.206567
0.193796
0.1809
0.167882
0.154759
0.141547
0.12826
0.11491
0.101507
0.0880608
0.0745781
0.0610652
0.0475269
0.0339673
0.0203899
0.00679636
0.260183
0.247185
0.234479
0.221614
0.208617
0.195543
0.182393
0.169162
0.155859
0.142491
0.129069
0.1156
0.102091
0.0885484
0.0749775
0.0613827
0.0477674
0.0341345
0.020487
0.00682093
0.263838
0.250381
0.237192
0.223922
0.210595
0.197242
0.183853
0.17042
0.156942
0.143424
0.12987
0.116283
0.102669
0.0890316
0.0753733
0.0616971
0.0480054
0.0342995
0.0205822
0.00684469
0.267179
0.253333
0.239736
0.226117
0.212494
0.198886
0.185276
0.171651
0.158006
0.144342
0.130658
0.116957
0.10324
0.0895081
0.0757634
0.0620069
0.0482397
0.0344619
0.020676
0.00686884
0.270218
0.25605
0.242108
0.228188
0.214305
0.200466
0.186652
0.172847
0.159044
0.14524
0.131432
0.117619
0.103801
0.0899772
0.0761476
0.0623122
0.0484707
0.0346222
0.020769
0.00689372
0.272969
0.258531
0.244297
0.230119
0.216008
0.201963
0.187964
0.173993
0.160043
0.146107
0.132181
0.118261
0.104346
0.0904332
0.0765214
0.0626093
0.0486957
0.0347786
0.0208598
0.00691875
0.275441
0.260779
0.2463
0.231901
0.217591
0.203364
0.189199
0.175078
0.160992
0.146934
0.132896
0.118876
0.104868
0.0908708
0.0768804
0.0628949
0.048912
0.034929
0.0209474
0.00694351
0.277649
0.2628
0.248114
0.233528
0.219048
0.204661
0.190347
0.176091
0.161882
0.147711
0.133571
0.119457
0.105363
0.0912857
0.0772211
0.0631661
0.0491177
0.0350722
0.021031
0.00696765
0.279606
0.264602
0.249743
0.235
0.220372
0.205847
0.191403
0.177027
0.162707
0.148434
0.1342
0.119999
0.105826
0.091674
0.0775403
0.0634204
0.0493107
0.0352067
0.0211096
0.00699082
0.281327
0.266192
0.251191
0.236315
0.221563
0.206918
0.192361
0.177878
0.16346
0.149095
0.134777
0.120498
0.106252
0.0920322
0.0778351
0.0636555
0.0494892
0.0353312
0.0211825
0.00701267
0.282823
0.267581
0.252461
0.237476
0.222619
0.207871
0.193216
0.178642
0.164137
0.149692
0.135299
0.12095
0.106638
0.0923574
0.0781029
0.0638692
0.0496516
0.0354447
0.021249
0.00703289
0.284106
0.268776
0.25356
0.238484
0.223539
0.208705
0.193968
0.179314
0.164735
0.15022
0.135761
0.121351
0.106981
0.092647
0.0783417
0.0640599
0.0497966
0.035546
0.0213085
0.0070512
0.285187
0.269786
0.254491
0.239342
0.224325
0.20942
0.194613
0.179894
0.165251
0.150677
0.136162
0.121699
0.10728
0.0928988
0.0785495
0.064226
0.0499231
0.0356344
0.0213605
0.00706737
0.286076
0.270617
0.255261
0.240052
0.224978
0.210015
0.195152
0.180378
0.165684
0.15106
0.136499
0.121992
0.107531
0.0931112
0.0787248
0.0643663
0.0500299
0.0357092
0.0214045
0.00708117
0.28678
0.271276
0.255872
0.240618
0.225498
0.210491
0.195583
0.180766
0.166031
0.151369
0.13677
0.122228
0.107734
0.0932827
0.0788665
0.0644797
0.0501163
0.0357697
0.0214402
0.00709244
0.287304
0.271768
0.256328
0.241041
0.225888
0.210847
0.195907
0.181058
0.166293
0.151601
0.136975
0.122406
0.107887
0.0934122
0.0789736
0.0645654
0.0501816
0.0358156
0.0214672
0.00710105
0.287656
0.272096
0.256632
0.241323
0.226148
0.211085
0.196123
0.181253
0.166467
0.151756
0.137111
0.122525
0.10799
0.093499
0.0790454
0.0646229
0.0502255
0.0358463
0.0214853
0.00710715
0.28785
0.272268
0.256788
0.241465
0.226278
0.211204
0.196231
0.181351
0.166555
0.151834
0.13718
0.122585
0.108041
0.0935425
0.0790814
0.0646517
0.0502474
0.0358618
0.021494
0.00711192
0.439906
0.415152
0.391423
0.368833
0.347481
0.32742
0.30869
0.291233
0.275103
0.259579
0.443983
0.419852
0.39661
0.374368
0.353202
0.333158
0.314299
0.296555
0.280283
0.26449
0.447559
0.424013
0.401259
0.379393
0.358492
0.338601
0.319803
0.301998
0.285603
0.269439
0.450576
0.42754
0.4052
0.383656
0.362985
0.34323
0.32448
0.306619
0.290074
0.273799
0.453171
0.430583
0.40862
0.387376
0.366928
0.347317
0.328634
0.310774
0.294135
0.277828
0.455416
0.43323
0.41161
0.390647
0.370415
0.350955
0.332355
0.314524
0.29781
0.281481
0.457362
0.435538
0.414231
0.393528
0.3735
0.354189
0.335674
0.317886
0.301114
0.284775
0.459053
0.437555
0.416535
0.396073
0.376237
0.357069
0.338639
0.3209
0.304086
0.287738
0.460523
0.439323
0.418565
0.398326
0.378669
0.359637
0.341291
0.3236
0.306753
0.290391
0.461802
0.440873
0.420356
0.400322
0.380833
0.361927
0.343661
0.326014
0.309139
0.292757
0.462911
0.44223
0.421935
0.402092
0.382757
0.363969
0.345776
0.328168
0.311265
0.294854
0.46387
0.443416
0.423325
0.403657
0.384466
0.365786
0.347659
0.330083
0.313151
0.296701
0.464694
0.444448
0.424545
0.40504
0.385979
0.367398
0.34933
0.331777
0.314812
0.298314
0.465395
0.445342
0.425611
0.406255
0.387315
0.368821
0.350804
0.333266
0.316264
0.299705
0.465985
0.446107
0.426536
0.407317
0.388486
0.370071
0.352096
0.334564
0.317518
0.300889
0.46647
0.446755
0.42733
0.408236
0.389504
0.371157
0.353216
0.335682
0.318585
0.301874
0.466858
0.447291
0.428
0.40902
0.390377
0.37209
0.354173
0.336628
0.319474
0.30267
0.467153
0.447721
0.428552
0.409674
0.39111
0.372873
0.354973
0.337408
0.32019
0.303284
0.467363
0.448054
0.428994
0.410208
0.391712
0.373515
0.355622
0.338028
0.320738
0.30372
0.467477
0.448295
0.42935
0.41066
0.392233
0.374074
0.356182
0.338548
0.321169
0.304016
0.700303
0.696517
0.690563
0.683969
0.676886
0.669067
0.660322
0.650881
0.642479
0.640757
0.677397
0.672413
0.665264
0.657899
0.650052
0.641244
0.631281
0.620475
0.610713
0.607846
0.652593
0.64676
0.638995
0.63103
0.622409
0.612607
0.601459
0.589358
0.578319
0.574379
0.626062
0.619844
0.611821
0.603418
0.594124
0.583433
0.571213
0.557953
0.54576
0.540861
0.598729
0.59227
0.584105
0.575357
0.565498
0.554046
0.540905
0.526671
0.513475
0.507771
0.570994
0.564374
0.556159
0.547165
0.536857
0.524781
0.510887
0.495897
0.481881
0.47555
0.543113
0.536425
0.528261
0.519132
0.508505
0.495963
0.481486
0.465919
0.451482
0.444487
0.51535
0.508692
0.500682
0.491534
0.480726
0.467893
0.453005
0.436998
0.422619
0.415031
0.487952
0.481431
0.473679
0.464629
0.453786
0.440811
0.425772
0.40968
0.395408
0.387394
0.461096
0.454889
0.447506
0.438664
0.427923
0.41501
0.400041
0.384098
0.370054
0.36178
0.842809
0.838685
0.835284
0.832693
0.830962
0.830125
0.830157
0.830928
0.83295
0.839599
0.840197
0.835929
0.832451
0.829764
0.827897
0.826889
0.826714
0.827242
0.828982
0.835477
0.834976
0.830434
0.826806
0.823926
0.821791
0.820443
0.819851
0.819893
0.82113
0.827243
0.827163
0.822238
0.818396
0.815234
0.812708
0.810861
0.809658
0.80899
0.809502
0.815038
0.816786
0.811396
0.807291
0.803765
0.800734
0.798248
0.796257
0.794674
0.794254
0.799049
0.803881
0.797977
0.793574
0.789618
0.785987
0.782738
0.779808
0.777135
0.775605
0.779513
0.788528
0.782083
0.777367
0.772926
0.768618
0.764507
0.760514
0.756608
0.753825
0.756727
0.770702
0.763759
0.758767
0.753826
0.748794
0.743757
0.738614
0.733374
0.729234
0.731038
0.750628
0.743229
0.738011
0.73253
0.726738
0.720739
0.714394
0.707758
0.7022
0.702846
0.727255
0.720521
0.715225
0.709201
0.702685
0.695737
0.688178
0.680127
0.673134
0.672593
0.995451
0.986449
0.977533
0.968655
0.959821
0.951051
0.942364
0.933775
0.92529
0.916949
0.90878
0.900804
0.893041
0.885521
0.878275
0.871337
0.864745
0.858539
0.852762
0.847467
0.995411
0.986329
0.977328
0.968363
0.959439
0.950579
0.941799
0.933114
0.92453
0.916093
0.907825
0.89974
0.891861
0.884216
0.876834
0.869747
0.86299
0.8566
0.850613
0.84508
0.995334
0.986089
0.976918
0.967783
0.958691
0.949662
0.940713
0.931852
0.923057
0.914414
0.905933
0.897624
0.889509
0.881612
0.873957
0.866572
0.859485
0.852726
0.84632
0.840305
0.995218
0.985725
0.976295
0.966896
0.957533
0.948222
0.938976
0.929797
0.920773
0.911862
0.90308
0.894448
0.885988
0.877718
0.869659
0.86183
0.854251
0.846942
0.839905
0.833147
0.995065
0.985248
0.975487
0.96576
0.956071
0.946439
0.936867
0.927284
0.917857
0.908548
0.89935
0.890281
0.881357
0.87259
0.863991
0.855571
0.847335
0.839288
0.83141
0.823627
0.994867
0.984636
0.974443
0.964273
0.95413
0.944022
0.933928
0.923995
0.914142
0.904354
0.894653
0.885054
0.875563
0.866185
0.856923
0.847773
0.838724
0.829763
0.820849
0.811757
0.994642
0.983942
0.973276
0.962638
0.952029
0.94142
0.930827
0.920347
0.90992
0.899547
0.88924
0.879003
0.868834
0.858728
0.848672
0.838647
0.828619
0.818545
0.808374
0.79764
0.994351
0.983051
0.971768
0.960508
0.94923
0.937974
0.926862
0.915782
0.904719
0.893686
0.882687
0.871718
0.860766
0.849815
0.838839
0.827801
0.816647
0.805304
0.793738
0.781154
0.9941
0.982281
0.970443
0.958509
0.946646
0.934875
0.923107
0.911337
0.899577
0.887825
0.876074
0.864311
0.852513
0.840651
0.828679
0.816532
0.804117
0.791293
0.77801
0.762976
0.993622
0.980846
0.968089
0.955455
0.942833
0.930207
0.917586
0.904964
0.892333
0.879682
0.866994
0.854244
0.841394
0.828395
0.815177
0.801649
0.78769
0.773147
0.757973
0.740898
0.993453
0.980357
0.967254
0.95414
0.941009
0.927861
0.914693
0.90149
0.888236
0.874913
0.861492
0.847935
0.834194
0.820201
0.805869
0.791079
0.775669
0.759389
0.741887
0.722017
0.993348
0.980041
0.966725
0.953395
0.940045
0.926666
0.913246
0.899771
0.886222
0.872578
0.858807
0.84487
0.830718
0.816284
0.801485
0.78621
0.77032
0.753629
0.735938
0.716947
0.993252
0.979744
0.966219
0.952677
0.939108
0.925498
0.911835
0.898102
0.884279
0.870341
0.856258
0.841991
0.82749
0.812696
0.797533
0.781907
0.765709
0.748809
0.731061
0.712342
0.993155
0.979443
0.965708
0.951949
0.938155
0.924312
0.910403
0.896412
0.882317
0.868093
0.853709
0.839127
0.824302
0.809177
0.793689
0.777759
0.7613
0.74422
0.726399
0.707812
0.993059
0.97915
0.96521
0.951242
0.937233
0.923168
0.909029
0.894798
0.880453
0.865968
0.851315
0.836456
0.821351
0.80595
0.790198
0.774031
0.75738
0.740179
0.722338
0.703876
0.992967
0.978868
0.964732
0.950566
0.936356
0.922083
0.90773
0.893278
0.878706
0.863989
0.849099
0.834002
0.818661
0.803034
0.787073
0.770727
0.753942
0.736671
0.718843
0.700491
0.99288
0.9786
0.964279
0.949926
0.935526
0.92106
0.90651
0.891857
0.87708
0.862156
0.847058
0.831755
0.816216
0.800402
0.784275
0.767793
0.750914
0.733603
0.715805
0.697555
0.992797
0.978347
0.963854
0.949326
0.934749
0.920105
0.905374
0.890539
0.875578
0.86047
0.845191
0.829712
0.814005
0.798039
0.78178
0.765196
0.748252
0.730923
0.713166
0.695015
0.99272
0.978112
0.963458
0.948768
0.93403
0.919222
0.904327
0.889328
0.874204
0.858934
0.843497
0.827868
0.812022
0.795931
0.779568
0.762906
0.745919
0.728589
0.710881
0.692827
0.992648
0.977895
0.963093
0.948256
0.93337
0.918414
0.903372
0.888225
0.872957
0.857547
0.841974
0.826217
0.810254
0.794061
0.777617
0.760898
0.743886
0.726565
0.70891
0.69095
0.992583
0.977697
0.962761
0.94779
0.93277
0.917682
0.902508
0.887232
0.871837
0.856304
0.840615
0.82475
0.80869
0.792416
0.775908
0.759148
0.742122
0.724818
0.707217
0.689346
0.992524
0.977518
0.962462
0.947371
0.932233
0.917027
0.901737
0.886347
0.870842
0.855203
0.839415
0.82346
0.80732
0.79098
0.774422
0.757633
0.740601
0.723319
0.705772
0.687982
0.992471
0.97736
0.962197
0.947001
0.931757
0.916448
0.901057
0.885568
0.869968
0.85424
0.838368
0.822337
0.806132
0.789739
0.773143
0.756335
0.739303
0.722044
0.704548
0.686833
0.992425
0.977221
0.961966
0.946678
0.931343
0.915945
0.900466
0.884894
0.869213
0.853409
0.837467
0.821374
0.805116
0.788681
0.772057
0.755235
0.738208
0.720972
0.703523
0.685873
0.992386
0.977103
0.961769
0.946402
0.930991
0.915517
0.899965
0.884322
0.868573
0.852707
0.836708
0.820564
0.804263
0.787795
0.77115
0.754319
0.737299
0.720086
0.702677
0.685085
0.992353
0.977004
0.961605
0.946173
0.930698
0.915162
0.89955
0.883849
0.868046
0.852128
0.836083
0.819899
0.803565
0.787072
0.770411
0.753575
0.736562
0.719369
0.701996
0.684452
0.992326
0.976926
0.961474
0.945991
0.930465
0.91488
0.89922
0.883473
0.867628
0.85167
0.83559
0.819375
0.803015
0.786503
0.76983
0.752992
0.735986
0.71881
0.701467
0.683962
0.992307
0.976867
0.961376
0.945855
0.930291
0.914669
0.898974
0.883194
0.867316
0.85133
0.835223
0.818985
0.802608
0.786082
0.769402
0.752562
0.735561
0.718399
0.701079
0.683604
0.992294
0.976828
0.961312
0.945764
0.930176
0.914529
0.898811
0.883008
0.86711
0.851104
0.83498
0.818728
0.802338
0.785804
0.769119
0.752279
0.735283
0.71813
0.700825
0.68337
0.992286
0.976808
0.96128
0.945719
0.930118
0.914459
0.898729
0.882915
0.867007
0.850992
0.834859
0.8186
0.802204
0.785666
0.768979
0.752139
0.735144
0.717997
0.7007
0.683258
0.700473
0.67693
0.652614
0.626872
0.600262
0.573234
0.546019
0.518853
0.491983
0.465619
0.697024
0.672535
0.648368
0.623676
0.598185
0.572287
0.546208
0.52013
0.49426
0.468863
0.69258
0.668542
0.645031
0.621323
0.596793
0.571808
0.546634
0.521438
0.496412
0.471746
0.68841
0.665111
0.642248
0.619315
0.595591
0.571389
0.546987
0.522538
0.498208
0.474157
0.684733
0.662135
0.639877
0.617576
0.594532
0.571
0.54726
0.523454
0.499732
0.47625
0.681518
0.659556
0.637846
0.616071
0.593599
0.570645
0.547474
0.524224
0.501034
0.478048
0.678728
0.657327
0.636096
0.614756
0.592766
0.57031
0.547632
0.524866
0.502142
0.479594
0.676323
0.655404
0.634577
0.613598
0.592015
0.569987
0.547738
0.525396
0.503083
0.480926
0.67426
0.653747
0.633253
0.612571
0.591331
0.569672
0.547796
0.525828
0.50388
0.482073
0.672493
0.652316
0.632091
0.611652
0.590701
0.56936
0.547811
0.526172
0.50455
0.483057
0.670985
0.651081
0.631068
0.610825
0.590116
0.569048
0.547785
0.526438
0.505108
0.483898
0.669702
0.650012
0.630163
0.610075
0.589567
0.568735
0.547722
0.526634
0.505565
0.484613
0.668615
0.649087
0.629358
0.60939
0.589049
0.568418
0.547625
0.526767
0.505933
0.485213
0.667699
0.648287
0.62864
0.608761
0.588556
0.568096
0.547494
0.52684
0.506218
0.48571
0.666937
0.647595
0.627997
0.60818
0.588083
0.567768
0.547332
0.52686
0.506428
0.486112
0.666311
0.646998
0.62742
0.607641
0.587628
0.567432
0.54714
0.526829
0.506568
0.486427
0.665809
0.646487
0.626901
0.607139
0.587186
0.567088
0.546919
0.526748
0.506641
0.486658
0.665422
0.646056
0.626439
0.606672
0.586759
0.566737
0.546671
0.526623
0.506651
0.486811
0.665139
0.645692
0.626022
0.606236
0.586345
0.566381
0.546399
0.526457
0.506606
0.486894
0.664957
0.645382
0.625606
0.605758
0.585858
0.565932
0.546025
0.526184
0.506454
0.486872
)
;

boundaryField
{
    bottom
    {
        type            symmetryPlane;
    }
    right
    {
        type            fixedValue;
        value           uniform 0;
    }
    top
    {
        type            symmetryPlane;
    }
    left
    {
        type            fixedValue;
        value           uniform 1;
    }
    cylinder
    {
        type            zeroGradient;
    }
    defaultFaces
    {
        type            empty;
    }
}


// ************************************************************************* //
