/*--------------------------------*- C++ -*----------------------------------*\
| =========                 |                                                 |
| \\      /  F ield         | OpenFOAM: The Open Source CFD Toolbox           |
|  \\    /   O peration     | Version:  4.1                                   |
|   \\  /    A nd           | Web:      www.OpenFOAM.org                      |
|    \\/     M anipulation  |                                                 |
\*---------------------------------------------------------------------------*/
FoamFile
{
    version     2.0;
    format      ascii;
    class       surfaceScalarField;
    location    "1.6";
    object      phi;
}
// * * * * * * * * * * * * * * * * * * * * * * * * * * * * * * * * * * * * * //

dimensions      [0 3 -1 0 0 0 0];

internalField   nonuniform List<scalar> 
3890
(
0.000521306
-0.00481194
0.00429064
0.00165116
-0.0117786
0.0106488
0.00309685
-0.0164707
0.015025
0.00466739
-0.0193134
0.0177429
0.00625172
-0.020794
0.0192096
0.00779431
-0.0213583
0.0198157
0.00927186
-0.0213607
0.0198831
0.0106791
-0.0210559
0.0196486
0.0120311
-0.0206229
0.019271
-0.0201928
0.0188872
0.0133367
0.00053217
-0.00534411
0.00164955
-0.012896
0.00304396
-0.0178651
0.00452577
-0.0207952
0.00599351
-0.0222617
0.00740377
-0.0227686
0.00874604
-0.0227029
0.0100261
-0.022336
0.0112532
-0.0218501
-0.0213681
0.0124285
0.000538205
-0.00588232
0.00163152
-0.0139893
0.00295986
-0.0191935
0.00433808
-0.0221734
0.00567599
-0.0235996
0.0069421
-0.0240347
0.00813544
-0.0238963
0.00926723
-0.0234677
0.0103484
-0.0229312
-0.0223985
0.0113788
0.000538393
-0.00642071
0.00159468
-0.0150456
0.00284138
-0.0204402
0.00410134
-0.0234334
0.00529757
-0.0247958
0.0064109
-0.025148
0.0074493
-0.0249347
0.00842911
-0.0244476
0.00936426
-0.0238664
-0.0232932
0.010259
0.000531727
-0.00695244
0.0015368
-0.0160507
0.00268573
-0.0215891
0.00381282
-0.0245605
0.00485578
-0.0258388
0.00580778
-0.0261
0.00668506
-0.025812
0.00750867
-0.0252712
0.00829499
-0.0246527
-0.0240484
0.00905019
0.00051729
-0.00746973
0.00145614
-0.0169895
0.00249111
-0.0226241
0.00347141
-0.0255408
0.00435055
-0.0267179
0.00513366
-0.0268831
0.00584426
-0.0265225
0.006507
-0.0259339
0.00713978
-0.0252854
-0.0246588
0.00775023
0.000494321
-0.00796405
0.00135152
-0.0178467
0.00225687
-0.0235294
0.00307765
-0.0263616
0.00378384
-0.0274241
0.00439182
-0.0274911
0.00493123
-0.027062
0.00542928
-0.026432
0.00590457
-0.0257607
-0.0251198
0.00636556
0.000462286
-0.00842633
0.00122252
-0.018607
0.00198367
-0.0242906
0.00263385
-0.0270117
0.00315971
-0.02795
0.00358788
-0.0279193
0.00395285
-0.0274269
0.00428331
-0.0267624
0.00459787
-0.0260753
-0.0254272
0.00490527
0.000420926
-0.00884726
0.00106952
-0.0192556
0.00167347
-0.0248945
0.00214395
-0.0274822
0.00248407
-0.0282901
0.00272946
-0.0281647
0.00291816
-0.0276156
0.00307941
-0.0269237
0.00323135
-0.0262272
-0.025578
0.00338213
0.000370299
-0.00921756
0.00089373
-0.019779
0.00132947
-0.0253303
0.00161325
-0.027766
0.00176427
-0.0284411
0.00182563
-0.028226
0.00183754
-0.0276275
0.00182865
-0.0269148
0.00181609
-0.0262147
0.00181218
-0.0255741
0.000373148
-0.000373148
0.00137505
-0.0010019
0.00285562
-0.00148058
0.00466811
-0.00181249
0.00668573
-0.00201762
0.00880922
-0.0021235
0.0109671
-0.00215789
0.0131117
-0.00214459
0.015213
-0.00210126
-0.00203609
0.0172491
0.000377811
-0.00075096
0.00138426
-0.00200834
0.00286866
-0.00296498
0.00468145
-0.00362528
0.00669558
-0.00403175
0.00881248
-0.0042404
0.0109615
-0.00430686
0.0130956
-0.00427869
0.0151855
-0.00419122
-0.0040611
0.0172105
0.000385552
-0.00113651
0.00140301
-0.0030258
0.00289421
-0.00445618
0.00470711
-0.00543818
0.00671417
-0.0060388
0.00881776
-0.006344
0.0109488
-0.00643792
0.013062
-0.00639186
0.0151294
-0.00625859
-0.00606361
0.0171319
0.000397164
-0.00153368
0.00143008
-0.00405872
0.00293053
-0.00595663
0.00474237
-0.00725003
0.00673766
-0.0080341
0.00882058
-0.00842691
0.0109247
-0.00854202
0.0130071
-0.00847425
0.0150417
-0.00829323
-0.00803368
0.0170118
0.000412171
-0.00194585
0.00146412
-0.00511066
0.00297468
-0.00746719
0.00478259
-0.00905793
0.00675982
-0.0100113
0.00881343
-0.0104805
0.0108809
-0.0106095
0.0129229
-0.0105163
0.0149156
-0.010286
-0.00996218
0.0168441
0.000429914
-0.00237576
0.00150294
-0.00618368
0.00302231
-0.00898656
0.00482092
-0.0108565
0.00677131
-0.0119617
0.00878478
-0.012494
0.0108045
-0.0126292
0.0127961
-0.0125079
0.0147386
-0.0122285
-0.0118414
0.0166179
0.000449469
-0.00282523
0.00154355
-0.00727776
0.00306765
-0.0105107
0.00484859
-0.0126375
0.0067603
-0.0138734
0.00871977
-0.0144535
0.0106777
-0.0145871
0.012607
-0.0144371
0.0144914
-0.0141129
-0.0136667
0.0163166
0.000469647
-0.00329488
0.00158228
-0.00839039
0.00310394
-0.0120323
0.00485554
-0.0143891
0.00671348
-0.0157314
0.00860189
-0.0163419
0.0104807
-0.0164659
0.0123325
-0.016289
0.0141492
-0.0159296
-0.0154359
0.0159184
0.000489113
-0.00378399
0.00161521
-0.00951649
0.00312414
-0.0135413
0.0048315
-0.0160965
0.0066171
-0.017517
0.00841312
-0.0181379
0.0101901
-0.0182429
0.0119438
-0.0180428
0.0136829
-0.0176686
-0.0171486
0.0153956
0.000506647
0.00163896
0.00312271
0.00476912
0.00646177
0.00813959
0.00977984
0.0113857
0.0129881
0.0147266
0.0182443
-0.000995257
0.0190986
-0.000854295
0.0198288
-0.000730201
0.0204507
-0.000621859
0.020978
-0.000527295
0.0214225
-0.000444534
0.0217945
-0.000372001
0.0221029
-0.000308424
0.0223556
-0.000252686
0.0225594
-0.000203766
0.0227201
-0.000160729
0.0228428
-0.000122721
0.0229318
-8.89607e-05
0.0229905
-5.87181e-05
0.0230217
-3.12348e-05
0.0230267
-4.95063e-06
0.0230121
1.46212e-05
0.0229795
3.25357e-05
0.0229302
4.92986e-05
6.35659e-05
0.0181945
-0.00197926
0.0190423
-0.00170203
0.0197691
-0.00145706
0.0203901
-0.00124282
0.0209183
-0.00105555
0.0213652
-0.000891413
0.0217406
-0.00074741
0.0220533
-0.000621094
0.0223109
-0.000510285
0.0225201
-0.000412978
0.0226867
-0.000327336
0.0228156
-0.000251679
0.0229111
-0.000184468
0.0229767
-0.000124274
0.0230151
-6.96458e-05
0.0230283
-1.8146e-05
0.0230198
2.31437e-05
0.0229938
5.8496e-05
0.0229512
9.19056e-05
0.000120726
0.0180943
-0.00294168
0.0189292
-0.00253695
0.0196494
-0.00217725
0.0202685
-0.00186194
0.0207986
-0.00158564
0.0212501
-0.00134291
0.0216323
-0.00112958
0.0219534
-0.000942223
0.0222208
-0.000777692
0.0224409
-0.000633073
0.0226193
-0.00050569
0.0227607
-0.000393086
0.0228692
-0.000293013
0.0229484
-0.000203404
0.023001
-0.000122247
0.0230298
-4.69563e-05
0.0230341
1.885e-05
0.0230215
7.10191e-05
0.0229924
0.000121091
0.000164598
0.0179421
-0.00387197
0.0187578
-0.00335268
0.0194679
-0.0028874
0.0200842
-0.00247818
0.0206169
-0.00211833
0.0210751
-0.00180117
0.0214673
-0.00152179
0.0218011
-0.00127599
0.0220832
-0.00105978
0.0223196
-0.000869474
0.0225156
-0.00070166
0.0226757
-0.000553199
0.0228039
-0.00042124
0.0229037
-0.000303199
0.0229781
-0.000196682
0.0230303
-9.91484e-05
0.0230525
-3.27942e-06
0.0230605
6.29559e-05
0.023052
0.000129562
0.000188184
0.0177329
-0.00476074
0.0185237
-0.00414349
0.019221
-0.00358464
0.0198337
-0.0030909
0.02037
-0.00265468
0.0208376
-0.00226869
0.0212434
-0.00192767
0.0215943
-0.00162685
0.0218961
-0.00136164
0.0221544
-0.00112774
0.0223739
-0.000921125
0.0225587
-0.000738066
0.0227126
-0.00057514
0.0228387
-0.000429249
0.0229396
-0.000297569
0.0230179
-0.000177425
0.0230801
-6.5511e-05
0.0231117
3.13416e-05
0.0231296
0.00011162
0.000185078
0.0174572
-0.00560005
0.0182183
-0.00490457
0.0189009
-0.00426724
0.0195104
-0.00370042
0.0200523
-0.00319658
0.0205322
-0.00274866
0.020956
-0.0023514
0.0213289
-0.00199973
0.0216559
-0.00168873
0.0219419
-0.00141372
0.0221911
-0.00117026
0.0224072
-0.000954177
0.0225936
-0.000761616
0.0227535
-0.000589089
0.0228894
-0.000433462
0.0230038
-0.000291883
0.0231
-0.000161653
0.0231705
-3.92106e-05
0.0232223
5.98867e-05
0.000147228
0.0171002
-0.00638359
0.017828
-0.00563244
0.0184966
-0.00493579
0.0191058
-0.00430964
0.0196577
-0.00374844
0.0201555
-0.0032465
0.020603
-0.00279888
0.021004
-0.0024007
0.0213624
-0.00204715
0.0216822
-0.00173353
0.0219671
-0.0014552
0.0222206
-0.00120767
0.0224457
-0.000986738
0.0226452
-0.00078857
0.0228215
-0.000609712
0.0229767
-0.000447111
0.0231132
-0.000298161
0.0232349
-0.000160892
0.0233257
-3.08891e-05
6.99967e-05
0.0166434
-0.0071086
0.0173361
-0.00632508
0.0179922
-0.00559193
0.0186049
-0.0049223
0.0191724
-0.004316
0.0196953
-0.00376934
0.0201743
-0.00327794
0.0206114
-0.00283777
0.0210091
-0.00244483
0.0213704
-0.00209488
0.0216986
-0.00178341
0.0219968
-0.00150585
0.0222679
-0.00125777
0.0225143
-0.00103504
0.0227385
-0.000833889
0.0229424
-0.000650966
0.0231275
-0.000483305
0.0232952
-0.000328576
0.02345
-0.00018573
-5.59459e-05
0.0160628
-0.00777581
0.0167321
-0.00699433
0.0173879
-0.00624775
0.0180139
-0.00554828
0.0186053
-0.00490741
0.0191601
-0.00432416
0.0196772
-0.00379507
0.0201567
-0.00331726
0.0205998
-0.00288795
0.0210087
-0.00250378
0.0213861
-0.00216073
0.0217346
-0.00185437
0.022057
-0.00158021
0.0223559
-0.00133391
0.0226335
-0.00111146
0.0228917
-0.000909192
0.0231322
-0.000723847
0.0233562
-0.000552574
0.0235637
-0.000393243
-0.00024671
0.0153318
-0.00838098
0.0159771
-0.00763968
0.0166359
-0.00690657
0.0172883
-0.00620064
0.0179193
-0.00553843
0.0185213
-0.00492612
0.0190904
-0.00436418
0.0196251
-0.00385194
0.0201254
-0.0033883
0.0205929
-0.00297123
0.0210296
-0.00259751
0.0214384
-0.0022631
0.0218217
-0.00196358
0.0221823
-0.00169446
0.0225224
-0.00145153
0.022844
-0.00123084
0.023149
-0.00102885
0.0234388
-0.000842383
0.0237144
-0.000668879
-0.000506654
0.02481
-0.00729448
-0.0258965
0.0240069
-0.00683656
0.0233998
-0.0062995
0.0229532
-0.005754
0.0226309
-0.00521619
0.0224012
-0.00469641
0.02224
-0.00420299
0.0221297
-0.00374165
0.0220572
-0.00331579
0.0220126
-0.0029266
0.0219884
-0.00257329
0.0219788
-0.00225355
0.0219795
-0.00196428
0.0219871
-0.00170205
0.021999
-0.00146339
0.0220132
-0.00124503
0.0220282
-0.00104392
0.0220432
-0.000857355
0.0220577
-0.000683357
-0.000521018
0.0254044
-0.00643844
-0.0262604
0.024661
-0.00609319
0.024055
-0.00569347
0.0235722
-0.00527118
0.0231967
-0.00484068
0.0229103
-0.00441004
0.0226953
-0.00398795
0.0225361
-0.00358254
0.0224204
-0.0032
0.0223378
-0.00284403
0.0222804
-0.00251593
0.022242
-0.00221515
0.0222177
-0.00193996
0.0222037
-0.00168801
0.022197
-0.00145672
0.0221955
-0.0012435
0.0221974
-0.00104585
0.0222016
-0.000861505
0.022207
-0.000688834
-0.000526266
0.0257379
-0.00569404
-0.0264823
0.02508
-0.00543528
0.0245184
-0.00513185
0.0240488
-0.00480161
0.0236635
-0.00445535
0.023353
-0.00409954
0.0231067
-0.00374168
0.0229141
-0.00338989
0.0227652
-0.00305117
0.0226516
-0.00273038
0.0225658
-0.00243012
0.0225018
-0.00215113
0.0224547
-0.00189286
0.0224206
-0.00165395
0.0223965
-0.00143264
0.02238
-0.001227
0.0223692
-0.00103507
0.0223627
-0.000854988
0.0223593
-0.000685404
-0.000524417
0.0259719
-0.00503217
-0.0266338
0.0253821
-0.00484546
0.0248665
-0.0046163
0.0244223
-0.00435736
0.0240446
-0.00407769
0.0237283
-0.00378321
0.0234672
-0.00348056
0.0232544
-0.00317718
0.0230831
-0.00287984
0.0229464
-0.00259368
0.0228382
-0.0023219
0.0227531
-0.00206605
0.0226867
-0.00182641
0.0226351
-0.00160243
0.0225956
-0.00139306
0.0225655
-0.00119694
0.0225431
-0.00101264
0.0225268
-0.000838667
0.0225153
-0.000673981
-0.000516592
0.0261477
-0.00444052
-0.0267394
0.0256145
-0.00431219
0.0251395
-0.00414135
0.0247213
-0.0039391
0.024357
-0.00371343
0.0240437
-0.00346986
0.0237776
-0.00321443
0.0235542
-0.00295386
0.0233688
-0.00269439
0.0232161
-0.00244098
0.0230912
-0.00219703
0.0229897
-0.00196452
0.0229076
-0.00174429
0.0228415
-0.00153638
0.0227888
-0.00134028
0.022747
-0.00115517
0.0227143
-0.000980002
0.0226894
-0.000813681
0.0226708
-0.000655438
-0.000503197
0.0262776
-0.00391221
-0.0268059
0.0257937
-0.0038283
0.0253555
-0.00370313
0.0249628
-0.00354639
0.0246144
-0.00336505
0.0243087
-0.00316416
0.0240435
-0.0029492
0.0238158
-0.00272622
0.0236223
-0.00250088
0.0234591
-0.00227779
0.0233224
-0.00206032
0.0232085
-0.00185063
0.0231141
-0.00164991
0.0230364
-0.0014586
0.0229727
-0.00127661
0.022921
-0.00110352
0.0228797
-0.000938645
0.0228472
-0.000781197
0.0228224
-0.00063066
-0.000484892
0.0263691
-0.00343971
-0.0268416
0.0259296
-0.00338878
0.0255255
-0.00329902
0.0251578
-0.00317872
0.0248266
-0.00303383
0.0245313
-0.0028688
0.0242706
-0.00268855
0.0240429
-0.00249848
0.0238456
-0.00230365
0.0236761
-0.00210829
0.0235314
-0.0019156
0.0234085
-0.00172778
0.0233049
-0.00154621
0.0232179
-0.0013716
0.0231454
-0.00120415
0.0230856
-0.00104375
0.023037
-0.000889989
0.0229981
-0.000742356
0.022968
-0.000600542
-0.000462371
0.02643
-0.00301618
-0.0268535
0.0260305
-0.00298927
0.0256581
-0.00292665
0.0253147
-0.00283534
0.0250012
-0.0027203
0.0247177
-0.00258535
0.024464
-0.00243483
0.024239
-0.00227347
0.0240411
-0.00210578
0.0238684
-0.00193558
0.0237187
-0.00176585
0.0235897
-0.00159874
0.0234791
-0.00143568
0.0233851
-0.00127755
0.0233057
-0.00112477
0.0232394
-0.000977423
0.0231847
-0.000835346
0.0231406
-0.000698224
0.023106
-0.000565926
-0.000436271
0.0264671
-0.00263548
-0.0268478
0.0261034
-0.00262562
0.0257603
-0.00258355
0.0254401
-0.00251512
0.0251442
-0.00242441
0.0248735
-0.00231461
0.0246281
-0.00218946
0.0244077
-0.00205309
0.0242114
-0.00190947
0.0240378
-0.00176199
0.0238854
-0.00161339
0.0237523
-0.00146569
0.023637
-0.00132034
0.0235377
-0.00117829
0.023453
-0.00104007
0.0233815
-0.000905934
0.023322
-0.000775883
0.0232736
-0.000649763
0.0232352
-0.000527579
-0.000407178
0.0264863
-0.00229202
-0.0268298
0.0261546
-0.00229387
0.0258381
-0.00226712
0.0255396
-0.00221661
0.0252608
-0.00214561
0.0250029
-0.00205674
0.0247667
-0.0019532
0.0245521
-0.00183854
0.0243589
-0.00171619
0.024186
-0.00158918
0.0240326
-0.00145994
0.0238973
-0.00133036
0.0237787
-0.00120182
0.0236757
-0.0010753
0.0235871
-0.000951401
0.0235116
-0.000830466
0.0234483
-0.000712617
0.0233964
-0.000597824
0.023355
-0.000486191
-0.000375624
0.0264926
-0.00198073
-0.0268039
0.026189
-0.00199023
0.0258966
-0.00197468
0.025618
-0.00193806
0.0253554
-0.00188295
0.0251101
-0.00181147
0.0248832
-0.00172629
0.0246751
-0.00163045
0.0244858
-0.00152691
0.0243149
-0.00141829
0.0241617
-0.00130675
0.0240254
-0.00119403
0.023905
-0.00108139
0.0237995
-0.000969797
0.0237079
-0.000859871
0.0236295
-0.000752011
0.0235633
-0.000646415
0.0235086
-0.000543142
0.0234648
-0.000442363
-0.000342079
0.0264901
-0.00169704
-0.0267738
0.026211
-0.0017111
0.0259398
-0.00170354
0.0256793
-0.00167757
0.0254316
-0.0016352
0.0251982
-0.00157812
0.0249805
-0.00150854
0.0247791
-0.00142903
0.0245943
-0.00134212
0.024426
-0.00125004
0.024274
-0.00115471
0.0241376
-0.00105764
0.0240162
-0.000960019
0.0239092
-0.000862719
0.0238157
-0.000766368
0.023735
-0.000671381
0.0236666
-0.000577999
0.0236098
-0.000486339
0.0235641
-0.000396614
-0.000306952
0.0264819
-0.0014368
-0.0267421
0.0262239
-0.00145311
0.0259714
-0.00145102
0.0257269
-0.00143312
0.0254926
-0.00140093
0.0252703
-0.00135577
0.0250612
-0.00129947
0.0248664
-0.00123417
0.0246862
-0.00116199
0.024521
-0.00108484
0.0243707
-0.00100435
0.0242349
-0.000921852
0.0241132
-0.000838394
0.0240053
-0.000754775
0.0239105
-0.000671583
0.0238284
-0.000589224
0.0237583
-0.000507959
0.0236999
-0.000427934
0.0236527
-0.000349382
-0.00027059
0.0264704
-0.00119626
-0.0267109
0.0262304
-0.00121309
0.0259939
-0.00121455
0.0257634
-0.00120266
0.0255411
-0.00117857
0.0253286
-0.00114331
0.0251275
-0.00109836
0.0249388
-0.00104548
0.0247633
-0.000986417
0.0246012
-0.000922783
0.0244528
-0.000855949
0.024318
-0.00078705
0.0241966
-0.000716991
0.0240883
-0.000646476
0.0239927
-0.000576034
0.0239096
-0.000506044
0.0238384
-0.000436762
0.0237788
-0.000368346
0.0237304
-0.000301028
-0.000233282
0.0264576
-0.000972038
-0.0266818
0.0262326
-0.000988112
0.0260097
-0.000991629
0.0257912
-0.00098415
0.0255791
-0.000966505
0.0253753
-0.000939494
0.0251813
-0.000904301
0.0249981
-0.000862348
0.0248268
-0.000815066
0.0246678
-0.000763764
0.0245214
-0.000709572
0.0243878
-0.000653429
0.0242669
-0.000596094
0.0241585
-0.000538162
0.0240626
-0.000480091
0.0239788
-0.000422215
0.0239068
-0.000364769
0.0238463
-0.000307907
0.0237972
-0.000251843
-0.000195267
0.0264449
-0.000761083
-0.0266558
0.0262323
-0.000775479
0.0260205
-0.00077992
0.025812
-0.000775576
0.0256085
-0.000763055
0.025412
-0.00074297
0.025224
-0.000716254
0.0250456
-0.000684031
0.024878
-0.000647432
0.0247217
-0.000607491
0.0245773
-0.000565103
0.0244448
-0.000521014
0.0243246
-0.000475831
0.0242165
-0.000430035
0.0241204
-0.000384
0.0240362
-0.000338005
0.0239636
-0.000292251
0.0239026
-0.000246874
0.0238528
-0.000202059
-0.000156737
0.0264334
-0.000560683
-0.0266338
0.0262306
-0.000572725
0.0260279
-0.000577187
0.0258273
-0.000574955
0.0256307
-0.000566502
0.0254401
-0.000552301
0.0252569
-0.000533065
0.0250825
-0.00050964
0.0249179
-0.000482873
0.024764
-0.000453536
0.0246212
-0.000422292
0.0244898
-0.000389699
0.0243702
-0.000356208
0.0242624
-0.000322183
0.0241663
-0.000287906
0.0240819
-0.000253593
0.024009
-0.000219401
0.0239476
-0.000185443
0.0238974
-0.000151856
-0.000117848
0.0264241
-0.000368464
-0.0266163
0.0262289
-0.000377581
0.026033
-0.000381252
0.0258383
-0.000380276
0.0256469
-0.000375062
0.0254606
-0.000365968
0.025281
-0.000353486
0.0251095
-0.00033819
0.0249473
-0.000320646
0.0247951
-0.000301365
0.0246536
-0.000280787
0.0245232
-0.000259278
0.0244041
-0.000237137
0.0242966
-0.000214606
0.0242005
-0.000191874
0.024116
-0.000169088
0.024043
-0.000146354
0.0239813
-0.000123754
0.0239308
-0.000101373
-7.87262e-05
0.0264182
-0.000182429
-0.0266042
0.0262283
-0.000187707
0.0260368
-0.000189798
0.025846
-0.00018939
0.0256577
-0.00018685
0.0254742
-0.00018238
0.0252969
-0.000176216
0.0251273
-0.000168646
0.0249667
-0.000159952
0.0248157
-0.000150389
0.0246751
-0.000140171
0.0245453
-0.00012948
0.0244266
-0.000118465
0.0243192
-0.000107244
0.0242233
-9.59145e-05
0.0241387
-8.45482e-05
0.0240656
-7.31986e-05
0.0240037
-6.19116e-05
0.023953
-5.06884e-05
-3.95451e-05
0.0264172
-0.0265996
0.0262295
0.0260397
0.0258503
0.0256635
0.0254811
0.0253049
0.0251362
0.0249763
0.0248259
0.0246857
0.0245562
0.0244378
0.0243305
0.0242346
0.0241501
0.0240769
0.0240149
0.0239643
0.0251675
0.0016602
-0.0250155
0.0253251
0.00322453
0.0254771
0.00475327
0.0256155
0.00622713
0.0257315
0.0076343
0.025816
0.00896568
0.0258606
0.0102143
0.0258677
0.0113717
0.0258264
0.0124698
0.0132666
0.0246564
0.00151044
-0.0245067
0.024824
0.00305698
0.0250085
0.00456874
0.025204
0.00603158
0.0254042
0.00743416
0.0256029
0.008767
0.0257924
0.0100248
0.0259731
0.011191
0.026114
0.0123289
0.0131202
0.0242101
0.00137744
-0.0240771
0.0243798
0.00288735
0.0245822
0.00436625
0.024813
0.00580088
0.0250667
0.00718046
0.0253383
0.00849533
0.0256206
0.00974249
0.0259128
0.0108989
0.0261993
0.0120423
0.0128372
0.0238264
0.00125649
-0.0237055
0.0239966
0.00271715
0.0242131
0.0041498
0.0244718
0.00554219
0.0247681
0.00688414
0.0250976
0.00816581
0.0254545
0.00938557
0.0258364
0.010517
0.0262402
0.0116385
0.0124436
0.0234961
0.00114642
-0.0233861
0.0236664
0.0025469
0.023894
0.00392219
0.0241755
0.00526071
0.0245067
0.00655285
0.0248837
0.00778883
0.0253017
0.0089676
0.0257557
0.010063
0.026249
0.0111452
0.0119532
0.0232106
0.00104532
-0.0231095
0.0233806
0.00237694
0.0236169
0.00368588
0.0239164
0.00496117
0.0242755
0.00619371
0.0246903
0.00737404
0.0251569
0.00850103
0.0256691
0.00955075
0.0262328
0.0105816
0.0113801
0.0229629
0.000951396
-0.022869
0.0231326
0.00220728
0.0233758
0.00344265
0.0236898
0.00464717
0.0240713
0.00581224
0.0245165
0.00692886
0.025022
0.00799548
0.0255815
0.00899131
0.0262005
0.00996247
0.010739
0.0227475
0.0008632
-0.0226593
0.022917
0.0020378
0.0231659
0.00319379
0.0234915
0.0043215
0.023891
0.00541277
0.0243606
0.00645923
0.0248974
0.00745874
0.0254948
0.00839386
0.0261576
0.00929973
0.0100431
0.0225601
0.000779584
-0.0224764
0.0227295
0.00186841
0.0229829
0.00294033
0.0233181
0.00398634
0.0237321
0.00499878
0.0242214
0.00596992
0.024783
0.0068971
0.0254109
0.00776595
0.0261081
0.00860252
0.00930344
0.0223971
0.000699652
-0.0223171
0.0225665
0.00169902
0.0228237
0.00268307
0.0231666
0.00364345
0.0235923
0.00457304
0.0240975
0.00546475
0.0246791
0.00631555
0.0253312
0.00711376
0.0260556
0.00787815
0.0085293
0.0222558
0.000622705
-0.0221788
0.0224252
0.0015296
0.0226856
0.00242265
0.0230348
0.00329424
0.0234701
0.00413776
0.0239881
0.00494681
0.0245855
0.00571812
0.025257
0.00644226
0.0260027
0.00713242
0.00772809
0.022134
0.00054819
-0.0220595
0.0223035
0.0013601
0.0225665
0.00215962
0.0229209
0.00293984
0.0233639
0.00369473
0.0238922
0.00441855
0.0245023
0.00510801
0.0251891
0.00575548
0.0259515
0.00636998
0.00690582
0.0220298
0.000475661
-0.0219572
0.0221994
0.00119051
0.0224646
0.0018944
0.0228233
0.00258116
0.0232726
0.00324537
0.0238092
0.00388198
0.0244294
0.00448778
0.0251282
0.00505666
0.0259036
0.00559458
0.00606735
0.0219417
0.000404757
-0.0218708
0.0221114
0.00102081
0.0223784
0.00162734
0.0227406
0.00221895
0.0231952
0.00279087
0.0237384
0.00333872
0.0243667
0.00385953
0.0250749
0.00434844
0.0258602
0.00480923
0.00521664
0.0218684
0.000335184
-0.0217988
0.0220382
0.000850998
0.0223068
0.00135874
0.0226719
0.00185382
0.0231306
0.00233217
0.0236793
0.0027901
0.0243138
0.00322497
0.0250293
0.00363297
0.0258221
0.0040164
0.00435692
0.0218088
0.000266707
-0.0217404
0.0219788
0.000681064
0.0222487
0.00108884
0.0226162
0.00148629
0.0230783
0.00187009
0.0236311
0.00223723
0.0242706
0.00258552
0.0249915
0.00291204
0.0257898
0.00321815
0.00349085
0.0217621
0.000199137
-0.0216945
0.0219321
0.000511018
0.0222031
0.000817865
0.0225726
0.00111681
0.0230374
0.0014053
0.0235936
0.00168106
0.0242367
0.00194239
0.0249616
0.00218717
0.0257635
0.00241617
0.0026206
0.0217273
0.000132287
-0.0216605
0.0218975
0.000340858
0.0221694
0.000545993
0.0225404
0.000745755
0.0230073
0.000938414
0.023566
0.00112242
0.0242117
0.00129662
0.0249393
0.00145963
0.0257436
0.00161188
0.00174784
0.0217038
6.60181e-05
-0.0216375
0.0218741
0.00017052
0.0221468
0.000273318
0.0225191
0.00037339
0.0229877
0.000469861
0.0235482
0.000561947
0.0241957
0.000649051
0.0249249
0.000730462
0.0257304
0.000806406
0.000874023
0.0216907
-0.0216246
0.0218612
0.0221345
0.0225079
0.0229777
0.0235397
0.0241887
0.0249192
0.0257256
0.0120402
0.0186984
-0.0173991
-0.0133395
0.0106214
0.0191769
-0.017758
0.00915822
0.0197564
-0.0182932
0.00764761
0.0204011
-0.0188905
0.00609414
0.0210613
-0.0195078
0.00452186
0.0216254
-0.0200531
0.00298349
0.0217925
-0.0202542
0.00158123
0.0208725
-0.0194703
0.000493793
0.0174723
-0.0163849
0.00904049
-0.00854669
0.0107979
0.0200033
-0.0121028
0.00948514
0.0204896
0.00814768
0.0210938
0.0067746
0.0217742
0.00536526
0.0224706
0.0039426
0.023048
0.002562
0.0231731
0.00132548
0.0221091
0.000396158
0.0184017
0.00943665
0.00956148
0.0211874
-0.0107456
0.00835198
0.0216991
0.00712459
0.0223212
0.00587514
0.0230237
0.0046043
0.0237415
0.00333417
0.0243182
0.00211981
0.0243875
0.00105925
0.0231696
0.000295945
0.019165
0.00973259
0.00825724
0.0222479
-0.00931774
0.00716955
0.0227868
0.00606544
0.0234253
0.00494678
0.0241423
0.00381912
0.0248691
0.00270704
0.0254303
0.00166598
0.0254286
0.000788685
0.0240469
0.000195643
0.019758
0.00992824
0.00689081
0.0231752
-0.00781815
0.00593884
0.0237388
0.00497105
0.0243931
0.00399314
0.0251202
0.00301621
0.0258461
0.00206878
0.0263777
0.0012071
0.0262902
0.000518236
0.0247358
9.72083e-05
0.020179
0.0100254
0.00547778
0.0239594
-0.00626189
0.00467133
0.0245452
0.00384973
0.0252147
0.00302154
0.0259484
0.00220292
0.0266647
0.00142654
0.0271541
0.000748618
0.0269682
0.000249662
0.0252347
5.13301e-06
0.0204236
0.0100306
0.00403309
0.0245943
-0.004668
0.00337825
0.0252001
0.00271009
0.0258829
0.00203934
0.0266192
0.00138598
0.0273181
0.000786348
0.0277537
0.000295393
0.0274591
-2.4629e-05
0.0255548
-8.99557e-05
0.0204889
0.00994062
0.0025694
0.0250757
-0.00305085
0.00207051
0.0256989
0.00156141
0.026392
0.00105459
0.027126
0.000573098
0.0277996
0.000154394
0.0281724
-0.000144564
0.0277581
-0.000253283
0.0256635
-0.000169105
0.0204047
0.00977151
0.00109816
0.0254025
-0.00142496
0.000758811
0.0260383
0.000414201
0.0267366
7.69556e-05
0.0274632
-0.000227404
0.0281039
-0.00045682
0.0284018
-0.000557208
0.0278585
-0.000482508
0.0255888
-0.000243177
0.0201654
0.00952834
-0.000367843
0.000196264
-0.000544206
-0.000722407
-0.000886722
-0.00100885
-0.00104812
-0.000955668
-0.00069715
-0.000310778
0.0173592
0.00181261
-0.0191718
0.0154858
0.0018734
0.0135455
0.0019403
0.0115318
0.00201368
0.00943884
0.00209295
0.00726901
0.00216983
0.00505124
0.00221777
0.00288214
0.0021691
0.00101042
0.00187172
0.00101042
0.0172732
0.00361976
-0.0190804
0.0154059
0.00374073
0.0134724
0.00387379
0.0114663
0.00401984
0.00938174
0.00417748
0.00722144
0.00433013
0.00501428
0.00442493
0.00285758
0.00432581
0.00100231
0.00372698
0.00201274
0.0171005
0.00541541
-0.0188961
0.0152454
0.00559575
0.0133256
0.00579363
0.0113345
0.00601089
0.00926689
0.00624514
0.00712589
0.00647113
0.00494144
0.00660938
0.0028112
0.00645605
0.00098281
0.00555537
0.00299555
0.0168397
0.00719333
-0.0186176
0.0150035
0.00743195
0.0131044
0.00769277
0.0111361
0.00797914
0.00909397
0.00828731
0.00698213
0.00858297
0.00483179
0.00875972
0.0027411
0.00854675
0.000954145
0.00734232
0.00394969
0.0164905
0.00894733
-0.0182445
0.0146795
0.00924289
0.012808
0.00956431
0.0108702
0.00991692
0.00886219
0.0102953
0.0067895
0.0106557
0.00468497
0.0108642
0.00264737
0.0105843
0.000916065
0.00907363
0.00486576
0.0160515
0.0106712
-0.0177754
0.0142719
0.0110224
0.0124349
0.0114014
0.0105353
0.0118164
0.00857035
0.0122603
0.0065471
0.0126789
0.00450045
0.0129109
0.00252984
0.012555
0.000868518
0.0107349
0.00573427
0.015526
0.0123618
-0.0172165
0.0137819
0.0127665
0.0119849
0.0131984
0.0101307
0.0136706
0.00821731
0.0141737
0.00625393
0.0146423
0.00427762
0.0148872
0.00238831
0.0144443
0.000811543
0.0123117
0.00654582
0.0149092
0.0140188
-0.0165663
0.0132012
0.0144745
0.0114513
0.0149483
0.0096514
0.0154706
0.00779972
0.0160254
0.00590794
0.0165341
0.00401552
0.0167796
0.00222256
0.0162372
0.000745233
0.013789
0.00729105
0.0142167
0.015663
-0.0158609
0.0125442
0.016147
0.0108436
0.0166488
0.0091003
0.0172139
0.00731723
0.0178085
0.00550821
0.0183431
0.00371366
0.0185742
0.00203267
0.0179182
0.000669843
0.0151519
0.00796089
0.0133924
-0.0151284
0.0117813
0.0101369
0.00846028
0.00676091
0.00505087
0.0033709
0.00181885
0.000585803
0.0223522
-9.99327e-05
0.0224491
-9.68101e-05
0.0225382
-8.91412e-05
0.0226164
-7.81719e-05
0.0226804
-6.40809e-05
0.0227275
-4.70799e-05
0.022755
-2.74922e-05
0.0227612
-6.21206e-06
0.0227373
2.39782e-05
0.0226801
5.71675e-05
0.022587
9.30947e-05
0.0224542
0.000132822
0.022277
0.000177171
0.0220499
0.000227067
0.0217663
0.000283614
0.0214182
0.000348128
0.0209961
0.000422132
0.0204888
0.000507278
0.0198839
0.000604881
0.000712119
0.0223837
-0.000193699
0.022474
-0.000187135
0.0225565
-0.000171626
0.0226279
-0.000149591
0.0226852
-0.000121322
0.0227253
-8.7222e-05
0.0227458
-4.79566e-05
0.0227455
-5.88605e-06
0.0227129
5.65611e-05
0.0226479
0.00012213
0.0225474
0.000193638
0.0224074
0.000272822
0.0222233
0.000361233
0.0219897
0.000460705
0.0216998
0.000573434
0.0213459
0.000702034
0.0209185
0.000849551
0.0204065
0.00101929
0.0197973
0.00121409
0.00142902
0.0224457
-0.000274257
0.0225225
-0.000264014
0.0225915
-0.000240554
0.0226492
-0.00020731
0.0226926
-0.00016478
0.0227191
-0.000113709
0.0227266
-5.54131e-05
0.0227106
1.00995e-05
0.0226621
0.000105098
0.0225818
0.000202401
0.0224665
0.000308974
0.0223122
0.000427095
0.0221144
0.000559029
0.0218676
0.000707478
0.0215654
0.000875692
0.0211998
0.00106756
0.0207618
0.00128763
0.0202402
0.00154083
0.0196225
0.00183181
0.00215541
0.0225357
-0.000334846
0.0225924
-0.000320689
0.0226411
-0.000289302
0.0226786
-0.000244849
0.0227019
-0.00018806
0.0227082
-0.000120003
0.0226959
-4.30521e-05
0.0226501
5.58756e-05
0.0225791
0.000176098
0.0224767
0.000304762
0.0223397
0.000445974
0.0221643
0.000602502
0.021946
0.000777315
0.0216796
0.000973951
0.0213586
0.00119667
0.0209755
0.00145059
0.0205215
0.00174173
0.0199858
0.00207648
0.0193563
0.00246127
0.00289409
0.0226495
-0.000368216
0.0226783
-0.000349526
0.022699
-0.000309926
0.022708
-0.000253909
0.0227025
-0.000182515
0.02268
-9.75305e-05
0.0226441
-7.13862e-06
0.0225663
0.00013365
0.0224636
0.00027883
0.0223308
0.00043754
0.0221643
0.000612447
0.0219604
0.000806457
0.0217145
0.00102315
0.0214217
0.00126684
0.0210756
0.0015427
0.0206693
0.00185693
0.0201941
0.00221693
0.0196402
0.00263039
0.0189968
0.0031047
0.00364637
0.0227856
-0.000367225
0.0227801
-0.000344032
0.0227668
-0.000296597
0.0227422
-0.000229301
0.0227033
-0.000143647
0.0226506
-4.48249e-05
0.0225553
8.8227e-05
0.0224428
0.000246101
0.022304
0.000417652
0.0221353
0.000606218
0.0219334
0.00081431
0.0216947
0.00104518
0.021415
0.0013029
0.0210894
0.00159245
0.0207122
0.00191983
0.020277
0.00229217
0.0197759
0.00271803
0.0192
0.00320628
0.0185412
0.00376345
0.00441224
0.0229359
-0.000323573
0.0228871
-0.000295214
0.0228307
-0.000240172
0.022763
-0.000161687
0.0226849
-6.54613e-05
0.0225799
6.0171e-05
0.0224441
0.000223987
0.0222871
0.000403117
0.0221037
0.000601075
0.0218909
0.000819035
0.0216456
0.00105958
0.0213645
0.00132631
0.0210436
0.00162377
0.0206785
0.00195748
0.0202643
0.00233404
0.0197953
0.00276121
0.019265
0.00324834
0.0186657
0.00380559
0.0179929
0.00443624
0.00518864
0.0231079
-0.000229785
0.0230098
-0.000197068
0.0229043
-0.000134731
0.0227919
-4.92318e-05
0.0226536
7.28493e-05
0.0224839
0.000229865
0.022299
0.000408905
0.0220912
0.000610847
0.0218576
0.000834664
0.0215954
0.00108132
0.0213015
0.00135347
0.0209728
0.00165493
0.020606
0.00199061
0.0201971
0.00236643
0.0197416
0.00278946
0.0192349
0.00326791
0.0186718
0.00381152
0.0180456
0.00443175
0.0173543
0.00512756
0.00597669
0.0232748
-7.71867e-05
0.023121
-4.32831e-05
0.0229676
1.86676e-05
0.0227833
0.00013502
0.022579
0.000277139