/*--------------------------------*- C++ -*----------------------------------*\
| =========                 |                                                 |
| \\      /  F ield         | OpenFOAM: The Open Source CFD Toolbox           |
|  \\    /   O peration     | Version:  4.1                                   |
|   \\  /    A nd           | Web:      www.OpenFOAM.org                      |
|    \\/     M anipulation  |                                                 |
\*---------------------------------------------------------------------------*/
FoamFile
{
    version     2.0;
    format      ascii;
    class       surfaceScalarField;
    location    "12.4";
    object      phi;
}
// * * * * * * * * * * * * * * * * * * * * * * * * * * * * * * * * * * * * * //

dimensions      [0 3 -1 0 0 0 0];

internalField   nonuniform List<scalar> 
3890
(
0.000304735
0.00147165
-0.00177638
0.00206797
-0.00037479
-0.00138845
0.00584204
-0.00528452
0.00151045
0.0118802
-0.0122222
0.00618407
0.0200377
-0.0201882
0.0120307
0.0298268
-0.028246
0.0184568
0.0405908
-0.0356974
0.0249334
0.0517837
-0.0421516
0.0309587
0.0628596
-0.0477438
0.0366678
-0.0514629
0.041016
0.0733066
0.000573677
0.000897971
0.00320683
-0.00300795
0.00842607
-0.0105038
0.0161809
-0.019977
0.0258296
-0.0298369
0.0364484
-0.0388648
0.0471797
-0.0464287
0.0574412
-0.0524131
0.0667129
-0.0570155
-0.0602202
0.0754701
0.000934549
-3.65784e-05
0.00460679
-0.00668018
0.0113049
-0.0172018
0.0203808
-0.0290529
0.0306123
-0.0400684
0.040833
-0.0490854
0.0502873
-0.055883
0.0586584
-0.0607842
0.0659792
-0.0643363
-0.0669103
0.0726693
0.00137953
-0.00141611
0.00617142
-0.0114721
0.0140889
-0.0251193
0.0237041
-0.0386681
0.0334305
-0.0497948
0.0422487
-0.0579036
0.049808
-0.0634423
0.0562371
-0.0672134
0.0618628
-0.069962
-0.0721448
0.0670974
0.0018961
-0.00331221
0.00772373
-0.0172997
0.0162918
-0.0336874
0.0255199
-0.0478962
0.0339029
-0.0581778
0.040891
-0.0648918
0.0466103
-0.0691615
0.0514707
-0.0720738
0.0558895
-0.0743807
-0.0765139
0.0602585
0.00244066
-0.00575286
0.00902057
-0.0238796
0.0175057
-0.0421725
0.0256068
-0.0559973
0.0322791
-0.0648501
0.0374985
-0.0701112
0.0416991
-0.0733622
0.0453665
-0.0757411
0.048865
-0.0778793
-0.0800328
0.0523839
0.00294771
-0.00870057
0.00982808
-0.03076
0.0175654
-0.0499098
0.024149
-0.0625809
0.0291112
-0.0698124
0.032806
-0.073806
0.0357811
-0.0763373
0.0384717
-0.0784317
0.0411239
-0.0805315
-0.0827562
0.0438473
0.00333611
-0.0120367
0.0100047
-0.0374286
0.0165523
-0.0564574
0.0215228
-0.0675514
0.0249379
-0.0732274
0.0273496
-0.0762177
0.0292919
-0.0782795
0.0310984
-0.0802383
0.0329199
-0.0823529
-0.0846331
0.0347968
0.00353196
-0.0155686
0.00953226
-0.0434289
0.0146865
-0.0616117
0.0181161
-0.070981
0.02018
-0.0752913
0.0214921
-0.0775299
0.0225085
-0.0792959
0.0234617
-0.0811915
0.0244279
-0.0833191
-0.0856266
0.0254213
0.00349468
-0.0190633
0.00851462
-0.0484488
0.0122294
-0.0653265
0.0142567
-0.0730082
0.0151447
-0.0761793
0.0154812
-0.0778664
0.0156244
-0.0794391
0.0157249
-0.081292
0.0158175
-0.0834117
0.0159034
-0.0857124
-0.000467739
0.000467739
-0.00142168
0.000953943
-0.002631
0.00120932
-0.00396519
0.00133418
-0.00535047
0.00138528
-0.00675029
0.00139982
-0.00815349
0.0014032
-0.0095665
0.00141301
-0.0110107
0.0014442
0.00151533
-0.012526
-0.000423869
0.000891608
-0.00128825
0.00181832
-0.00237623
0.00229731
-0.00355612
0.00251407
-0.00474937
0.00257854
-0.00591215
0.0025626
-0.00702487
0.00251592
-0.00808692
0.00247506
-0.0091133
0.00247058
0.00254715
-0.0101451
-0.000347203
0.00123881
-0.00105541
0.00252653
-0.00192411
0.00316601
-0.00282394
0.0034139
-0.00367023
0.00342483
-0.00440696
0.00329933
-0.00499868
0.00310764
-0.00543027
0.00290665
-0.00570712
0.00274744
0.0026801
-0.00584007
-0.000258943
0.00149775
-0.000773997
0.00304158
-0.00136288
0.00375489
-0.00190003
0.00395105
-0.00229616
0.00382097
-0.00248341
0.00348657
-0.00240659
0.00303082
-0.00202239
0.00252246
-0.00131258
0.00203762
0.00172745
-0.000359928
-0.00017884
0.00167659
-0.000494056
0.0033568
-0.00077387
0.0040347
-0.000895364
0.00407254
-0.000765425
0.00369103
-0.0003065
0.00302765
0.000552818
0.0021715
0.00188064
0.00119464
0.00373741
0.000180853
-0.000695968
0.00616083
-0.000118804
0.0017954
-0.000242546
0.00348054
-0.00019114
0.0039833
0.000164415
0.00371699
0.00092968
0.00292576
0.00219472
0.00176261
0.00404301
0.000323209
0.00655266
-0.00131501
0.00980472
-0.00307121
-0.00490456
0.0140133
-7.81464e-05
0.00187354
-3.85265e-06
0.00340625
0.000422948
0.0035565
0.00137345
0.00276649
0.00298138
0.00131783
0.00535896
-0.000614964
0.00859539
-0.00291322
0.0127487
-0.00546837
0.0178288
-0.00815127
-0.0113348
0.024259
-4.43468e-05
0.00191789
0.000257088
0.00310481
0.00117766
0.00263593
0.00293508
0.00100906
0.00571169
-0.00145879
0.00963818
-0.00454145
0.0147737
-0.00804871
0.0210911
-0.0117858
0.0284922
-0.0155524
-0.0201497
0.0373071
1.78688e-05
0.00190002
0.000638232
0.00248445
0.00223898
0.00103518
0.00510779
-0.00185974
0.00944897
-0.00579997
0.0153429
-0.0104353
0.0227306
-0.0154365
0.0313849
-0.0204402
0.041162
-0.0253294
-0.0305527
0.051565
0.000123638
0.00121963
0.00376527
0.0080896
0.0143203
0.0223418
0.0318388
0.0423573
0.0536957
0.064159
-0.0134747
0.000948641
-0.0144185
0.00094388
-0.0153349
0.000916362
-0.016218
0.000883058
-0.0170633
0.000845335
-0.0178661
0.000802764
-0.0186212
0.000755136
-0.0193236
0.000702427
-0.0199685
0.000644883
-0.0205516
0.000583092
-0.0210696
0.000518015
-0.0215206
0.000451011
-0.0219045
0.000383867
-0.0222233
0.000318796
-0.0224816
0.000258329
-0.0226867
0.000205086
-0.0228485
0.000161799
-0.0229801
0.00013158
-0.0230961
0.000115993
0.000108712
-0.0109522
0.00175569
-0.0117712
0.00176287
-0.0125825
0.00172773
-0.0133827
0.00168318
-0.0141671
0.0016298
-0.0149307
0.00156629
-0.0156676
0.00149207
-0.016372
0.00140683
-0.0170379
0.00131074
-0.0176593
0.00120452
-0.0182309
0.00108962
-0.0187481
0.00096824
-0.0192077
0.000843459
-0.0196082
0.000719295
-0.0199505
0.000600649
-0.0202384
0.000492972
-0.0204787
0.00040208
-0.0206821
0.000334996
-0.0208646
0.000298535
0.000284906
-0.00638323
0.00229885
-0.00694669
0.00232634
-0.0075351
0.00231614
-0.00814651
0.00229459
-0.0087771
0.00226039
-0.00942274
0.00221193
-0.010078
0.00214734
-0.0107368
0.00206558
-0.0113923
0.0019663
-0.0120375
0.00184974
-0.0126649
0.00171694
-0.0132666
0.00156996
-0.0138352
0.00141207
-0.0143638
0.00124792
-0.014847
0.00108378
-0.0152813
0.000927307
-0.0156661
0.000786936
-0.0160047
0.000673595
-0.0163125
0.000606248
0.000590042
-0.000463348
0.00240227
-0.000689423
0.00255241
-0.000961156
0.00258787
-0.00127452
0.00260795
-0.00163859
0.00262446
-0.00205349
0.00262683
-0.00251543
0.00260928
-0.00302003
0.00257018
-0.00356252
0.00250878
-0.00413717
0.00242439
-0.00473709
0.00231686
-0.00535425
0.00218712
-0.00597953
0.00203735
-0.00660285
0.00187124
-0.00721344
0.00169437
-0.0078006
0.00151447
-0.00835423
0.00134057
-0.00886338
0.00118275
-0.00931982
0.00106268
0.00107507
0.00638319
0.00217991
0.006502
0.0024336
0.00656117
0.00252869
0.00657387
0.00259526
0.00652628
0.00267204
0.00641196
0.00274116
0.00623162
0.00278962
0.00598639
0.00281541
0.00567671
0.00281847
0.00530371
0.00279739
0.00486991
0.00275066
0.00437926
0.00267777
0.00383724
0.00257937
0.00325113
0.00245735
0.00263031
0.00231519
0.00198628
0.0021585
0.00133147
0.00199538
0.000676222
0.00183799
3.45578e-05
0.00170435
0.00157334
0.0144598
0.00173339
0.0147806
0.00211287
0.0150542
0.00225504
0.0153055
0.00234399
0.0155107
0.00246683
0.0156592
0.00259265
0.0157506
0.00269828
0.0157826
0.00278331
0.015751
0.00285009
0.0156515
0.00289692
0.0154811
0.00292108
0.0152379
0.00292096
0.0149212
0.00289601
0.0145319
0.00284667
0.0140728
0.00277435
0.013549
0.0026823
0.0129691
0.00257526
0.0123468
0.00246026
0.0117122
0.00233897
0.00225019
0.0246374
0.00135504
0.024938
0.00181223
0.0252285
0.00196455
0.0255416
0.00203085
0.0258376
0.00217088
0.0261085
0.00232172
0.0263552
0.00245163
0.0265719
0.00256656
0.0267499
0.00267211
0.026881
0.00276577
0.0269583
0.00284376
0.0269754
0.0029039
0.0269264
0.00294497
0.0268066
0.00296649
0.0266125
0.0029685
0.0263418
0.002953
0.0259949
0.00292209
0.0255718
0.00288338
0.0250757
0.00283512
0.00280448
0.0373625
0.00129964
0.0374727
0.00170207
0.0376623
0.00177495
0.0379088
0.00178434
0.0381646
0.00191509
0.0384359
0.00205046
0.0387209
0.00216659
0.039008
0.00227952
0.0392858
0.00239427
0.0395457
0.0025059
0.0397795
0.00260999
0.0399791
0.00270423
0.0401372
0.0027869
0.0402468
0.00285693
0.0403018
0.00291345
0.0402967
0.00295811
0.0402275
0.00299129
0.0400897
0.00302122
0.0398783
0.00304645
0.00309764
0.0514082
0.0014565
0.0514756
0.00163464
0.0517377
0.00151281
0.0520064
0.00151568
0.0522978
0.00162372
0.0526196
0.00172861
0.0529581
0.00182809
0.0532998
0.00193784
0.0536393
0.00205477
0.0539731
0.00217205
0.054297
0.00228612
0.0546064
0.00239488
0.0548967
0.00249658
0.0551635
0.0025901
0.0554026
0.00267437
0.0556095
0.00275118
0.0557813
0.00281948
0.0559132
0.00288936
0.0560087
0.00295089
0.00306451
0.0645003
0.00111521
0.065189
0.00094592
0.0657849
0.000916929
0.0662977
0.00100284
0.0668055
0.00111596
0.0673026
0.00123149
0.0677793
0.00135138
0.0682412
0.00147596
0.0686939
0.00160209
0.0691401
0.00172584
0.0695811
0.00184508
0.0700181
0.00195786
0.0704515
0.00206324
0.0708811
0.00216046
0.0713067
0.00224884
0.0717267
0.00233112
0.0721427
0.00240344
0.0725505
0.00248162
0.0729627
0.00253864
0.00265152
0.0894975
0.00202799
-0.0904103
0.0885112
0.00193215
0.0875979
0.00183031
0.0868113
0.00178935
0.0861338
0.00179353
0.0855406
0.00182465
0.0850155
0.00187647
0.0845489
0.00194263
0.084133
0.00201797
0.0837612
0.00209763
0.083427
0.00217923
0.0831257
0.00225917
0.0828525
0.0023365
0.0826039
0.00240904
0.0823762
0.00247652
0.0821668
0.00254056
0.0819738
0.00259643
0.0817956
0.00265977
0.0816346
0.00269965
0.00277821
0.0989029
0.0022575
-0.0991324
0.0985584
0.00227667
0.0981428
0.00224596
0.0977307
0.00220143
0.0973435
0.00218069
0.0969797
0.00218844
0.0966386
0.00221763
0.0963214
0.00225978
0.0960283
0.00231113
0.0957585
0.00236739
0.09551
0.00242773
0.0952814
0.00248782
0.0950698
0.00254807
0.0948742
0.0026046
0.0946918
0.00265891
0.0945227
0.00270974
0.0943639
0.00275521
0.0942194
0.00280424
0.0940838
0.00283528
0.00289309
0.105692
0.00248585
-0.10592
0.10554
0.00242863
0.105397
0.00238927
0.105256
0.00234205
0.105127
0.00231004
0.105011
0.00230414
0.104908
0.00232128
0.104815
0.00235252
0.104732
0.00239391
0.104659
0.00244044
0.104594
0.00249222
0.104538
0.00254433
0.104488
0.00259825
0.104443
0.00264892
0.104403
0.00269896
0.104368
0.00274534
0.104335
0.00278766
0.104308
0.00283174
0.104282
0.0028607
0.00291221
0.111172
0.00261652
-0.111302
0.111124
0.00247586
0.111115
0.00239831
0.111117
0.00234029
0.111129
0.00229771
0.111157
0.00227687
0.111199
0.00227893
0.111254
0.00229717
0.11132
0.00232778
0.111396
0.00236503
0.111479
0.00240893
0.111569
0.00245461
0.111664
0.00250336
0.111762
0.00255066
0.111863
0.00259775
0.111965
0.00264335
0.112069
0.00268377
0.112172
0.00272906
0.112276
0.0027565
0.00280957
0.116065
0.00261603
-0.116065
0.1161
0.00244141
0.116165
0.00233305
0.116245
0.0022596
0.116337
0.00220654
0.116441
0.00217267
0.11656
0.00215984
0.116693
0.0021639
0.116839
0.00218185
0.116996
0.0022082
0.117163
0.00224211
0.117338
0.0022797
0.11752
0.00232087
0.117708
0.00236328
0.1179
0.00240497
0.118095
0.00244884
0.118293
0.0024853
0.118491
0.00253165
0.118691
0.00255603
0.00261157
0.1209
0.0025386
-0.120823
0.120985
0.00235719
0.121088
0.00222933
0.121208
0.00214009
0.121338
0.00207609
0.12148
0.00203134
0.121634
0.00200573
0.121801
0.00199662
0.121981
0.00200174
0.122173
0.00201668
0.122375
0.00203959
0.122587
0.00206795
0.122808
0.00209983
0.123036
0.00213551
0.123271
0.00216974
0.12351
0.00220954
0.123755
0.00224019
0.124002
0.00228462
0.124253
0.00230502
0.00235943
0.12591
0.00242656
-0.125798
0.126021
0.00224532
0.126144
0.00210652
0.126279
0.00200486
0.126425
0.00193066
0.12658
0.00187655
0.126745
0.00184031
0.126922
0.00181974
0.127111
0.00181296
0.127311
0.00181689
0.127521
0.00182889
0.127742
0.0018477
0.127971
0.00186989
0.128209
0.00189771
0.128455
0.00192375
0.128707
0.00195748
0.128966
0.00198168
0.129229
0.00202128
0.129497
0.00203755
0.00208688
0.13108
0.00229083
-0.130944
0.131212
0.00211345
0.131348
0.00197063
0.131491
0.00186122
0.131643
0.00177893
0.131803
0.00171707
0.131971
0.00167221
0.132148
0.00164215
0.132336
0.00162505
0.132534
0.00161896
0.132742
0.00162092
0.132959
0.00163052
0.133186
0.00164355
0.13342
0.00166319
0.133663
0.00168131
0.133912
0.00170789
0.134168
0.00172586
0.13443
0.00175884
0.134697
0.00177126
0.00181316
0.13627
0.00212963
-0.136109
0.136424
0.00195992
0.136576
0.00181805
0.136732
0.0017052
0.136893
0.00161771
0.13706
0.00155019
0.137234
0.00149882
0.137415
0.00146139
0.137604
0.00143599
0.137801
0.00142142
0.138007
0.00141479
0.138222
0.00141613
0.138444
0.00142112
0.138674
0.00143302
0.138911
0.00144407
0.139156
0.00146345
0.139406
0.00147585
0.139663
0.00150174
0.139924
0.00151078
0.00154467
0.141319
0.00193682
-0.141126
0.141502
0.00177682
0.141681
0.00163914
0.141859
0.00152663
0.14204
0.00143722
0.142223
0.00136666
0.142411
0.00131122
0.142603
0.00126878
0.142802
0.00123742
0.143007
0.00121643
0.143219
0.00120309
0.143437
0.00119773
0.143662
0.0011962
0.143894
0.00120155
0.144131
0.00120676
0.144374
0.00121982
0.144623
0.00122757
0.144877
0.00124706
0.145135
0.0012533
0.00127998
0.146136
0.00170201
-0.145901
0.14636
0.00155314
0.146576
0.00142253
0.146789
0.00131405
0.147
0.00122628
0.147211
0.00115584
0.147423
0.00109914
0.147637
0.0010545
0.147855
0.00101984
0.148076
0.000994983
0.148302
0.00097722
0.148532
0.000967337
0.148767
0.000961173
0.149007
0.000961873
0.149251
0.000962754
0.1495
0.00097117
0.149752
0.000975381
0.150009
0.000990111
0.150268
0.000994175
0.00101549
0.150782
0.00141666
-0.150496
0.151053
0.00128161
0.151314
0.00116165
0.151567
0.0010611
0.151815
0.000978707
0.152059
0.000911883
0.152301
0.000857162
0.152542
0.000813481
0.152783
0.000778513
0.153025
0.000752786
0.153269
0.000733232
0.153515
0.000721484
0.153763
0.000712871
0.154014
0.000711318
0.154267
0.000709621
0.154523
0.000715648
0.15478
0.000717578
0.155041
0.000729796
0.155303
0.000732359
0.000750751
0.155495
0.00108632
-0.155165
0.155808
0.000968973
0.156106
0.000863672
0.156392
0.000774839
0.156669
0.000701331
0.15694
0.000641527
0.157205
0.000591978
0.157466
0.00055247
0.157724
0.000520165
0.15798
0.000496566
0.158236
0.00047785
0.15849
0.000466948
0.158745
0.00045808
0.159
0.000456731
0.159255
0.0004542
0.159511
0.000460141
0.159767
0.000461031
0.160024
0.00047302
0.160282
0.000474739
0.000492616
0.160608
0.000740322
-0.160262
0.160933
0.000643828
0.161241
0.000556247
0.161534
0.000481843
0.161815
0.00041969
0.162087
0.000369316
0.162352
0.000327288
0.16261
0.000294331
0.162863
0.000266927
0.163112
0.000247687
0.163358
0.000231794
0.163602
0.000223732
0.163843
0.000216272
0.164083
0.000216889
0.164323
0.000214842
0.16456
0.000222285
0.164798
0.000223078
0.165035
0.000236341
0.165272
0.000237722
0.000256612
0.166318
0.000427089
-0.166004
0.16661
0.00035181
0.166883
0.000282585
0.167142
0.000223279
0.167388
0.000173253
0.167625
0.000132906
0.167853
9.91693e-05
0.168074
7.35468e-05
0.168289
5.18814e-05
0.168499
3.77417e-05
0.168705
2.54529e-05
0.168908
2.08421e-05
0.169109
1.54529e-05
0.169307
1.84717e-05
0.169504
1.74381e-05
0.1697
2.66379e-05
0.169895
2.7727e-05
0.170089
4.23546e-05
0.170284
4.36401e-05
6.35259e-05
0.172439
0.000190791
-0.172203
0.172657
0.000134196
0.172858
8.16498e-05
0.173045
3.60765e-05
0.173221
-2.22031e-06
0.173387
-3.37041e-05
0.173546
-5.97111e-05
0.173698
-7.8675e-05
0.173845
-9.50397e-05
0.173988
-0.000104726
0.174127
-0.000113744
0.174263
-0.000115597
0.174398
-0.000119183
0.174531
-0.000114594
0.174663
-0.000114818
0.174795
-0.000104887
0.174926
-0.000103614
0.175057
-8.88859e-05
0.175189
-8.77024e-05
-6.82906e-05
0.178395
4.72932e-05
-0.178251
0.178523
6.04251e-06
0.178636
-3.18899e-05
0.178738
-6.51641e-05
0.178829
-9.3943e-05
0.178912
-0.000116709
0.178988
-0.000135906
0.179059
-0.000149395
0.179125
-0.000161267
0.179188
-0.000167613
0.179249
-0.000174
0.179307
-0.000174294
0.179365
-0.000176629
0.179422
-0.000171835
0.179479
-0.000171693
0.179536
-0.000162614
0.179594
-0.000161446
0.179654
-0.000148465
0.179714
-0.000147495
-0.000130669
0.183492
-1.56284e-05
-0.183429
0.183541
-4.33425e-05
0.183578
-6.87635e-05
0.183603
-9.06585e-05
0.183619
-0.000109741
0.183627
-0.00012462
0.183628
-0.000137343
0.183625
-0.000146046
0.183618
-0.000153833
0.183608
-0.000157653
0.183595
-0.000161775
0.183583
-0.000161461
0.183569
-0.000162879
0.183556
-0.000159039
0.183543
-0.000158815
0.183533
-0.000151977
0.183522
-0.000151106
0.183515
-0.00014151
0.183509
-0.000140821
-0.000128501
0.187195
-1.92937e-05
-0.187191
0.187188
-3.65031e-05
0.187169
-5.0006e-05
0.187139
-6.06259e-05
0.187099
-6.98954e-05
0.187052
-7.71965e-05
0.186998
-8.35245e-05
0.18694
-8.77888e-05
0.186877
-9.1641e-05
0.186813
-9.34325e-05
0.186747
-9.54384e-05
0.186681
-9.51283e-05
0.186613
-9.57645e-05
0.186548
-9.36614e-05
0.186483
-9.34683e-05
0.186421
-8.98468e-05
0.186359
-8.9322e-05
0.186302
-8.43083e-05
0.186245
-8.3862e-05
-7.73987e-05
0.189149
-0.189169
0.189113
0.189063
0.189002
0.188932
0.188855
0.188771
0.188684
0.188592
0.188499
0.188403
0.188308
0.188212
0.188119
0.188025
0.187935
0.187846
0.187762
0.187678
0.0892836
0.0148192
-0.0881994
0.0903982
0.0243066
0.0915611
0.0336339
0.0927257
0.0426827
0.0939222
0.0511874
0.095026
0.0591548
0.0958135
0.0663098
0.096323
0.0721599
0.0937329
0.0780602
0.0766292
0.0920364
0.0138406
-0.0910578
0.0930924
0.0232506
0.0942569
0.0324695
0.0954964
0.0414432
0.0967592
0.0499245
0.098185
0.057729
0.0991988
0.065296
0.100743
0.0706161
0.100751
0.0780514
0.0782482
0.0950307
0.0129583
-0.0941484
0.0960476
0.0222337
0.0971845
0.0313325
0.0984998
0.040128
0.099792
0.0486323
0.10143
0.0560911
0.102759
0.0639667
0.104482
0.068893
0.105985
0.0765484
0.078313
0.0981428
0.0121441
-0.0973286
0.0991622
0.0212144
0.100308
0.0301871
0.101709
0.0387263
0.103108
0.0472336
0.10482
0.0543792
0.106487
0.0623
0.108127
0.0672522
0.110202
0.0744737
0.077213
0.101273
0.0113675
-0.100496
0.102321
0.020166
0.103539
0.0289693
0.105034
0.0372317
0.106625
0.0456418
0.108383
0.0526215
0.110327
0.0603562
0.112056
0.0655231
0.11429
0.0722397
0.0754384
0.104334
0.0105989
-0.103566
0.105424
0.0190767
0.106762
0.0276311
0.108367
0.035626
0.110193
0.0438163
0.112097
0.0507176
0.114291
0.0581623
0.116315
0.0634992
0.118669
0.0698852
0.0732845
0.107249
0.00981466
-0.106465
0.108391
0.0179342
0.10987
0.0261526
0.111624
0.0338723
0.113691
0.0417483
0.11586
0.0485496
0.118324
0.0556976
0.120729
0.0610945
0.123326
0.0672886
0.0708127
0.109971
0.00900117
-0.109158
0.111181
0.016724
0.112799
0.0245347
0.114734
0.0319379
0.117041
0.0394412
0.119527
0.0460631
0.122302
0.0529225
0.12511
0.0582866
0.128088
0.0643105
0.0679568
0.112516
0.00815335
-0.111668
0.113802
0.0154378
0.115547
0.0227896
0.117667
0.0298178
0.120202
0.0369068
0.122999
0.0432653
0.126115
0.0498074
0.129334
0.0550667
0.13278
0.0608653
0.0646276
0.114981
0.00727343
-0.114101
0.116338
0.0140813
0.118189
0.0209386
0.120469
0.0275372
0.123205
0.0341707
0.126274
0.0401963
0.129724
0.0463582
0.133343
0.0514474
0.137269
0.0569395
0.0607704
0.117553
0.00637287
-0.116652
0.11896
0.0126742
0.120887
0.0190111
0.123285
0.0251393
0.126181
0.0312753
0.129464
0.0369127
0.133197
0.0426258
0.137168
0.0474764
0.141522
0.0525857
0.0563907
0.120471
0.00546528
-0.119564
0.121898
0.0112468
0.123869
0.0170409
0.12634
0.0226679
0.129345
0.0282701
0.132784
0.0334741
0.136723
0.0386866
0.140974
0.043226
0.145662
0.0478971
0.0515563
0.12394
0.00459053
-0.123066
0.125359
0.0098278
0.127345
0.0150554
0.129862
0.0201513
0.13294
0.0251918
0.136494
0.0299203
0.140577
0.034603
0.145042
0.0387617
0.149974
0.0429643
0.046366
0.128002
0.003782
-0.127193
0.129394
0.00843575
0.131385
0.0130643
0.133947
0.0175893
0.137097
0.0220423
0.140767
0.0262501
0.144984
0.0303854
0.149642
0.0341041
0.154784
0.0378218
0.0408885
0.132428
0.00305628
-0.131702
0.133795
0.00706889
0.135806
0.0110531
0.138442
0.0149531
0.1417
0.0187842
0.145531
0.0224197
0.149933
0.0259827
0.154825
0.029212
0.160226
0.0324218
0.0351096
0.136764
0.00240081
-0.136109
0.138128
0.00570504
0.140192
0.00898912
0.142943
0.0122023
0.146364
0.0153636
0.150414
0.01837
0.155079
0.0213175
0.160282
0.0240088
0.166035
0.026669
0.0289415
0.140544
0.00178103
-0.139924
0.141933
0.00431562
0.144081
0.00684206
0.146973
0.0093102
0.15059
0.011746
0.154894
0.0140663
0.159869
0.0163425
0.165437
0.0184401
0.171609
0.020497
0.0222998
0.143517
0.0011712
-0.142907
0.144943
0.00288945
0.147177
0.00460792
0.150203
0.00628373
0.154007
0.00794193
0.158549
0.00952441
0.163816
0.0110756
0.169737
0.0125194
0.176312
0.013922
0.0151832
0.145631
0.000576329
-0.145036
0.147076
0.00144381
0.149369
0.00231513
0.15249
0.00316319
0.156428
0.00400363
0.161145
0.00480674
0.166628
0.00559303
0.172817
0.00633024
0.179698
0.00704106
0.00769033
0.146781
-0.146205
0.148225
0.15054
0.153703
0.157707
0.162514
0.168107
0.174437
0.181478
0.04205
0.0515609
-0.0455303
-0.0480806
0.0360708
0.0502419
-0.0442627
0.030496
0.0493853
-0.0438106
0.0252323
0.0490803
-0.0438166
0.0201653
0.0492413
-0.0441743
0.0152287
0.0498509
-0.0449143
0.0104079
0.0507664
-0.0459457
0.00582537
0.0508511
-0.0462685
0.00196463
0.0460118
-0.042151
0.0263718
-0.0244072
0.0401961
0.0574816
-0.0461168
0.0344015
0.0560365
0.028888
0.0548989
0.0236951
0.0542732
0.0187503
0.0541861
0.0139757
0.0546255
0.0093599
0.0553822
0.00506036
0.0551506
0.00159097
0.0494812
0.0279628
0.0374348
0.0630495
-0.0430027
0.0319395
0.0615317
0.0266398
0.0601986
0.0216199
0.0592931
0.0168638
0.0589422
0.0123168
0.0591726
0.00798665
0.0597124
0.00407385
0.0590634
0.00111599
0.052439
0.0290788
0.0336013
0.068228
-0.0387798
0.0285301
0.0666029
0.023606
0.0651227
0.0189087
0.0639904
0.0144568
0.0633941
0.0102304
0.0633989
0.00627803
0.0636648
0.00286468
0.0624768
0.000539561
0.0547642
0.0296183
0.0287777
0.0729428
-0.0334924
0.024203
0.0711776
0.0197707
0.069555
0.0155289
0.0682322
0.0115039
0.0674192
0.00770636
0.0671965
0.00423036
0.0671408
0.00142455
0.0652826
-0.000129083
0.0563178
0.0294893
0.0229957
0.077071
-0.0271239
0.0190202
0.075153
0.0151837
0.0733915
0.0115075
0.0719083
0.00801738
0.0709093
0.00475645
0.0704574
0.00187607
0.0700211
-0.00025342
0.0674121
-0.000796251
0.0568606
0.028693
0.0163735
0.0804927
-0.0197952
0.013089
0.0784375
0.00993162
0.0765489
0.00690973
0.0749302
0.00404691
0.0737721
0.00142499
0.0730793
-0.000722301
0.0721684
-0.00186357
0.0685533
-0.00148533
0.0564824
0.0272077
0.00902445
0.0831089
-0.0116406
0.0065091
0.0809528
0.00411009
0.0789479
0.00182018
0.0772201
-0.000332848
0.0759252
-0.00222518
0.0749717
-0.00351692
0.0734602
-0.00364659
0.068683
-0.00215831
0.0549941
0.0250494
0.00107864
0.0849078
-0.00287751
-0.000585088
0.0826166
-0.00217336
0.0805362
-0.00369157
0.0787383
-0.00507758
0.0773112
-0.00613976
0.0760339
-0.00646512
0.0737855
-0.00543231
0.0676502
-0.00276055
0.0523223
0.0222888
-0.00724765
0.00644304
-0.0080428
-0.00879862
-0.00949939
-0.0100546
-0.0102
-0.00942275
-0.00709903
-0.00322549
0.0324048
0.00307106
-0.0354758
0.029212
0.00319275
0.0258783
0.00333374
0.022383
0.00349531
0.0186981
0.00368488
0.0147901
0.00390797
0.0106404
0.00414975
0.00633615
0.00430423
0.00233511
0.00400104
0.00233511
0.0329842
0.00627303
-0.0361862
0.029676
0.00650101
0.0262418
0.00676789
0.022661
0.00707617
0.0189048
0.00744104
0.0149386
0.00787415
0.0107404
0.00834791
0.00639419
0.00865048
0.0023635
0.00803173
0.00469861
0.0340816
0.00972402
-0.0375326
0.0305534
0.0100292
0.0269277
0.0103935
0.0231832
0.0108206
0.0192903
0.011334
0.0152124
0.0119521
0.0109246
0.0126357
0.00650499
0.0130701
0.00240797
0.0121287
0.00710658
0.0355785
0.0135153
-0.0393697
0.0317483
0.0138594
0.0278589
0.0142829
0.0238886
0.0147909
0.0198071
0.0154156
0.0155756
0.0161835
0.0111652
0.0170462
0.00664615
0.0175891
0.00246483
0.0163101
0.00957141
0.0373122
0.0177035
-0.0415005
0.0331272
0.0180444
0.0289263
0.0184838
0.0246896
0.0190276
0.0203862
0.019719
0.0159749
0.0205947
0.0114224
0.0215987
0.00679176
0.0222197
0.00252117
0.0205807
0.0120926
0.0390976
0.0223039
-0.0436979
0.0345365
0.0226054
0.0300026
0.0230177
0.0254815
0.0235487
0.020943
0.0242576
0.0163437
0.025194
0.0116465
0.0262959
0.00690862
0.0269576
0.0025615
0.0249278
0.0146541
0.0407211
0.0273124
-0.0457296
0.035787
0.0275395
0.0309328
0.0278719
0.0261456
0.0283359
0.0213877
0.0290155
0.0166132
0.0299684
0.0117858
0.0311234
0.00696168
0.0317817
0.00256938
0.0293201
0.0172235
0.0420633
0.0327101
-0.047461
0.0367516
0.0328512
0.0315936
0.0330299
0.0265678
0.0333616
0.0216215
0.0339618
0.0167052
0.0348848
0.0117829
0.0360457
0.00691367
0.036651
0.00252781
0.0337059
0.0197513
0.0427274
0.0385989
-0.0486162
0.0371187
0.0384599
0.0317914
0.0383572
0.026618
0.0385351
0.0215447
0.0390351
0.0165415
0.039888
0.0115799
0.0410073
0.00672693
0.0415039
0.00242023
0.0380126
0.0221715
0.0427803
-0.0497117
0.0369775
0.0315242
0.0262426
0.0211035
0.0160772
0.0111388
0.00637411
0.00223569
0.0390592
-0.000103684
0.039162
-0.000102792
0.0392618
-9.98012e-05
0.0393544
-9.25849e-05
0.0394362
-8.17583e-05
0.0395036
-6.7443e-05
0.0395528
-4.92085e-05
0.0395791
-2.62526e-05
0.0395762
2.84112e-06
0.0395439
3.23041e-05
0.0394748
6.91228e-05
0.0393615
0.000113249
0.0391959
0.000165657
0.0389682
0.000227717
0.038667
0.000301156
0.0382789
0.00038809
0.0377877
0.000491216
0.037174
0.000613669
0.0364142
0.000759807
0.000938401
0.0399104
-0.000208437
0.0400128
-0.000205118
0.0401106
-0.000197644
0.0402007
-0.000182654
0.0402797
-0.000160805
0.0403442
-0.000131908
0.04039
-9.50378e-05
0.0404124
-4.85962e-05
0.0404061
9.06476e-06
0.0403693
6.91461e-05
0.0402948
0.00014365
0.0401752
0.00023287
0.040002
0.000338783
0.0397656
0.000464132
0.0394544
0.00061239
0.0390547
0.000787767
0.0385502
0.000995709
0.0379215
0.00124234
0.0371449
0.00153642
0.00189714
0.0415844
-0.000305095
0.041679
-0.000299751
0.0417695
-0.000288164
0.0418521
-0.00026526
0.0419233
-0.000231955
0.0419793
-0.000187895
0.0420158
-0.000131584
0.0420275
-6.03264e-05
0.0420116
2.50306e-05
0.0419631
0.000117605
0.0418753
0.000231421
0.0417406
0.000367565
0.0415504
0.000529042
0.0412945
0.000719988
0.0409613
0.000945644
0.0405368
0.00121229
0.0400043
0.00152819
0.0393443
0.00190227
0.0385335
0.00234728
0.00289804
0.044021
-0.000383425
0.0440973
-0.000376012
0.0441696
-0.0003605
0.044234
-0.000329622
0.0442863
-0.000284304
0.0443226
-0.000224161
0.0443382
-0.00014724
0.0443279
-5.00205e-05
0.0442916
6.13784e-05
0.0442197
0.000189512
0.044106
0.000345128
0.0439428
0.000530743
0.0437213
0.000750567
0.043431
0.00101022
0.04306
0.00131673
0.0425938
0.00167849
0.0420154
0.0021066
0.0413046
0.00261304
0.0404395
0.00321235
0.00396785
0.047139
-0.000426662
0.0471799
-0.000416914
0.0472166
-0.000397177
0.0472451
-0.000358112
0.0472611
-0.000300376
0.0472604
-0.000223421
0.0472382
-0.000125033
0.047184
4.21162e-06
0.047109
0.000136332
0.0469948
0.000303719
0.0468358
0.000504128
0.0466244
0.000742094
0.0463516
0.00102338
0.0460065
0.00135536
0.0455766
0.00174662
0.045047
0.0022081
0.0444005
0.00275308
0.0436149
0.00339866
0.0426723
0.00415494
0.00513963
0.0508442
-0.000410728
0.0508252
-0.00039792
0.0508006
-0.000372571
0.0507667
-0.0003242
0.0507192
-0.000252819
0.0506531
-0.000157374
0.0505603
-3.2171e-05
0.0504547
0.000109763
0.0503099
0.00028116
0.050125
0.000488591
0.0498933
0.000735827
0.0496064
0.00102904
0.049255
0.00137473
0.0488276
0.00178278
0.0483118
0.00226244
0.0476908
0.0028291
0.0469488
0.00349511
0.0460582
0.0042892
0.0450107
0.0052025
0.00645237
0.0550405
-0.000302774
0.0549281
-0.000285461
0.0548079
-0.000252407
0.054678
-0.000194317
0.0545329
-0.000107702
0.0543629
1.26044e-05
0.0541828
0.000147936
0.053972
0.00032057
0.0537244
0.000528782
0.0534348
0.000778177
0.0530965
0.00107414
0.0527002
0.00142535
0.0522371
0.0018378
0.051694
0.00232589
0.0510605
0.00289597
0.0503157
0.00357393
0.0494488
0.00436199
0.0484182
0.00531981
0.0472267
0.006394
0.00794941
0.0596398
-5.87585e-05
0.0593906
-3.62497e-05
0.059128
1.01532e-05
0.0588562
7.75371e-05
0.0585719
0.000176552
0.0582763
0.000308279
0.0579512
0.000473042
0.0575956
0.000676094
0.057204
0.000920427
0.0567688
0.00121332
0.0562838
0.00155914
0.0557381
0.00197113
0.0551239
0.00245191
0.0544242
0.00302568
0.0536335
0.00368658
0.052722
0.00448544
0.0516956
0.0053884
0.0504881
0.00652732
0.0491412
0.00774097
0.0096296
0.0645646
0.000364796
0.0641266
0.00040171
0.0636812
0.000455567
0.0632248
0.000533943
0.0627556
0.00064572
0.0622674
0.000796515
0.0617535
0.000986941
0.0612085
0.00122105
0.0606278
0.00150122
0.0600029
0.00183813
0.059329
0.00223307
0.0585932
0.00270696
0.057791
0.00325411
0.0568977
0.00391894
0.0559191
0.00466525
0.0547987
0.0056058
0.0535789
0.00660823
0.0521121
0.0079941
0.05059
0.00926302
0.0116035
0.0698113
0.00108634
0.0691152
0.00109779
0.0684236
0.00114721
0.0677268
0.00123075
0.0670178
0.00135465
0.0662897
0.00152463
0.0655375
0.0017392
0.0647555
0.00200297
0.0639402
0.00231655
0.0630825
0.0026958
0.0621791
0.00313656
0.0612147
0.00367134
0.0601938
0.00427503
0.059087
0.00502573
0.0579227
0.00582953
0.0566232
0.00690528
0.0553064
0.00792505
0.0536969
0.00960359
0.052207
0.0107529
0.0140987
0.0696036
0.00109446
0.0696015
0.0010999
0.0696017
0.00114699
0.0696061
0.00122639
0.0696107
0.00135006
0.0696121
0.00152321
0.0696126
0.0017387
0.0696143
0.00200129
0.0696222
0.0023087
0.0696362
0.00268176
0.0696658
0.00310699
0.0697092
0.00362793
0.0697895
0.00419474
0.0698962
0.00491898
0.070085
0.00564078
0.0703152
0.00667503
0.070734
0.00750629
0.0712636
0.00907392
0.0723689
0.00964768
0.0121256
0.074342
0.0750663
0.00104105
0.0750722
0.00109403
0.0750846
0.00113453
0.0751096
0.00120144
0.0751341
0.00132553
0.0751535
0.00150379
0.0751731
0.00171916
0.0751966
0.00197772
0.0752292