/*--------------------------------*- C++ -*----------------------------------*\
| =========                 |                                                 |
| \\      /  F ield         | OpenFOAM: The Open Source CFD Toolbox           |
|  \\    /   O peration     | Version:  4.1                                   |
|   \\  /    A nd           | Web:      www.OpenFOAM.org                      |
|    \\/     M anipulation  |                                                 |
\*---------------------------------------------------------------------------*/
FoamFile
{
    version     2.0;
    format      ascii;
    class       surfaceScalarField;
    location    "9.6";
    object      phi;
}
// * * * * * * * * * * * * * * * * * * * * * * * * * * * * * * * * * * * * * //

dimensions      [0 3 -1 0 0 0 0];

internalField   nonuniform List<scalar> 
3890
(
0.000200032
0.00256529
-0.00276532
0.00198358
0.00162796
-0.00341151
0.00616453
-0.00341177
-0.000769171
0.0132234
-0.0114001
0.0043412
0.0230798
-0.0210864
0.0112301
0.0350953
-0.0311556
0.0191401
0.0483049
-0.0405351
0.0273255
0.0619012
-0.0486215
0.0350251
0.0750724
-0.0554429
0.0422718
-0.0599518
0.0482512
0.086773
0.000467364
0.00209793
0.00324678
-0.00115145
0.00923922
-0.00940421
0.018571
-0.0207318
0.0304231
-0.0329386
0.043471
-0.0442035
0.056462
-0.053526
0.068543
-0.0607025
0.0789687
-0.0658686
-0.0693528
0.0883698
0.00086718
0.00123075
0.00492941
-0.00521368
0.0128946
-0.0173694
0.0240388
-0.0318759
0.0366403
-0.0455402
0.049016
-0.0565792
0.0601003
-0.0646103
0.0694542
-0.0700565
0.0772204
-0.0736348
-0.0760494
0.083917
0.00139447
-0.000163722
0.00692774
-0.010747
0.0166036
-0.0270453
0.0284924
-0.0437648
0.0403289
-0.0573767
0.0507007
-0.066951
0.0591729
-0.0730825
0.0659816
-0.0768652
0.0716311
-0.0792843
-0.0810193
0.076601
0.00203226
-0.00219599
0.0090206
-0.0177353
0.0196545
-0.0376792
0.0309967
-0.055107
0.0409708
-0.0673508
0.0489003
-0.0748805
0.0550306
-0.0792128
0.0599455
-0.0817801
0.0642022
-0.083541
-0.0850847
0.0682676
0.00275384
-0.00494983
0.0108704
-0.0258518
0.0214367
-0.0482455
0.0312543
-0.0649246
0.0389907
-0.0750872
0.044712
-0.0806018
0.0490392
-0.0835399
0.0526077
-0.0853486
0.0558815
-0.0868148
-0.0882595
0.0590564
0.00347927
-0.00842909
0.0121223
-0.0344948
0.0217136
-0.0578368
0.0295674
-0.0727784
0.0351856
-0.0807054
0.0391087
-0.0845249
0.0420619
-0.0864932
0.0445919
-0.0878787
0.0469935
-0.0892164
-0.0906552
0.0493892
0.00409079
-0.0125199
0.0125515
-0.0429556
0.020619
-0.0659043
0.0264723
-0.0786316
0.0302606
-0.0844937
0.0327438
-0.0870081
0.0345982
-0.0883476
0.0362274
-0.0895079
0.0378099
-0.0907989
-0.0922333
0.039388
0.00446901
-0.0169889
0.0121226
-0.0506091
0.0184628
-0.0722445
0.0224766
-0.0826455
0.0247308
-0.0867479
0.0260321
-0.0883094
0.0269385
-0.089254
0.0277242
-0.0902936
0.0284753
-0.09155
-0.0929665
0.0292085
0.00454178
-0.0215307
0.0109915
-0.0570589
0.0155917
-0.0768447
0.0179846
-0.0850383
0.0189494
-0.0877127
0.0192343
-0.0885943
0.0192676
-0.0892873
0.0192217
-0.0902477
0.0191381
-0.0914663
0.0190163
-0.0928447
-0.000886602
0.000886602
-0.00262164
0.00173504
-0.00478235
0.00216071
-0.00716158
0.00237923
-0.00966144
0.00249986
-0.0122441
0.0025827
-0.0149045
0.00266034
-0.0176552
0.00275074
-0.0205242
0.00286894
0.00303307
-0.0235572
-0.000781039
0.00166764
-0.0023278
0.00328181
-0.00425589
0.0040888
-0.00635581
0.00447914
-0.00851754
0.00466159
-0.0106872
0.0047524
-0.0128431
0.00481617
-0.0149834
0.00489109
-0.0171223
0.00500786
0.00521319
-0.0193025
-0.000595926
0.00226357
-0.00181337
0.00449925
-0.00332296
0.00559839
-0.00492196
0.00607814
-0.00648561
0.00622524
-0.00793524
0.00620204
-0.00922062
0.00610154
-0.0103139
0.00598438
-0.0112044
0.00589831
0.00591552
-0.0119067
-0.000380545
0.00264411
-0.00119373
0.00531243
-0.00217799
0.00658265
-0.00314531
0.00704547
-0.00396267
0.00704261
-0.00453028
0.00676964
-0.00476602
0.00633728
-0.00460735
0.00582571
-0.00400407
0.00529504
0.00486685
-0.00295541
-0.000185146
0.00282926
-0.000595233
0.00572252
-0.00102804
0.00701546
-0.00131436
0.00733179
-0.00132082
0.00704907
-0.000935687
0.00638451
-5.51908e-05
0.00545678
0.00143043
0.00434009
0.00361547
0.00311
0.0018746
0.00660773
-4.82956e-05
0.00287755
-0.000112893
0.00578711
-2.55146e-05
0.00692808
0.000377176
0.0069291
0.00123769
0.00618855
0.0026847
0.00493751
0.00484488
0.0032966
0.0078377
0.00134727
0.0117404
-0.000792732
-0.00343373
0.0170488
1.46872e-05
0.00286287
0.00021132
0.00559048
0.000781641
0.00635776
0.00191223
0.00579851
0.00378166
0.00431912
0.00656192
0.00215725
0.0104045
-0.00054595
0.0154438
-0.00369206
0.0215925
-0.00694145
-0.0115479
0.0297067
2.09999e-05
0.00284187
0.000433119
0.00517836
0.00151308
0.00527779
0.00352053
0.00379106
0.00671034
0.00112932
0.0113086
-0.00244105
0.0174628
-0.00670015
0.0252044
-0.0114336
0.0343018
-0.0160389
-0.0226468
0.0454007
1.71353e-05
0.00282473
0.000688393
0.0045071
0.00244252
0.00352367
0.00566006
0.000573521
0.0106725
-0.00388308
0.0176663
-0.0094349
0.0266389
-0.0156727
0.0373018
-0.0220965
0.0494815
-0.0282187
-0.0355979
0.0624327
5.9411e-05
0.001155
0.0039095
0.00882422
0.0161712
0.0258764
0.0375292
0.0504578
0.0645109
0.0771642
-0.025512
0.00195481
-0.0274432
0.00193112
-0.0293258
0.0018826
-0.0311506
0.00182485
-0.0329049
0.0017543
-0.0345722
0.00166729
-0.0361326
0.00156042
-0.0375626
0.00142997
-0.0388352
0.00127262
-0.0399207
0.00108553
-0.0407874
0.000866654
-0.0414022
0.000614763
-0.0417309
0.00032877
-0.0417269
-4.05363e-06
-0.0414086
-0.000318268
-0.0407583
-0.000650328
-0.0397885
-0.000969771
-0.0385274
-0.00126111
-0.0370002
-0.00152715
-0.00172968
-0.0209674
0.00361979
-0.0226319
0.00359563
-0.0242664
0.00351701
-0.0258631
0.0034216
-0.0274124
0.0033036
-0.0289012
0.00315609
-0.0303135
0.00297276
-0.0316313
0.00274774
-0.0328339
0.00247517
-0.0338967
0.00214835
-0.0347925
0.0017625
-0.0354917
0.00131393
-0.0359624
0.000799475
-0.0361777
0.000211217
-0.0360969
-0.000399086
-0.0357221
-0.00102512
-0.0350437
-0.00164811
-0.0340746
-0.00223025
-0.0328477
-0.00275403
-0.00313968
-0.0130513
0.00476439
-0.0142223
0.00476661
-0.0153968
0.00469155
-0.0165648
0.00458957
-0.0177188
0.00445759
-0.0188503
0.00428758
-0.0199484
0.00407086
-0.0210002
0.00379956
-0.0219919
0.0034669
-0.0229108
0.00306724
-0.0237407
0.00259238
-0.0244608
0.00203403
-0.0250484
0.00138706
-0.0254844
0.000647224
-0.0257091
-0.000174351
-0.0257284
-0.00100578
-0.0255054
-0.00187111
-0.025021
-0.00271467
-0.0242883
-0.00348674
-0.00405922
-0.0033956
0.00520459
-0.00394596
0.00531697
-0.00453372
0.00527931
-0.00513915
0.005195
-0.00576172
0.00508017
-0.00639759
0.00492345
-0.00703873
0.00471199
-0.00767595
0.00443679
-0.00830022
0.00409117
-0.00890223
0.00366925
-0.00947629
0.00316644
-0.0100164
0.00257415
-0.0105095
0.00188013
-0.0109452
0.00108296
-0.0112911
0.000171553
-0.0115426
-0.000754346
-0.0116724
-0.00174125
-0.0116377
-0.00274941
-0.0114129
-0.00371154
-0.00447512
0.00682202
0.00499029
0.00690144
0.00523755
0.00691635
0.0052644
0.00690263
0.00520872
0.00685613
0.00512667
0.00677358
0.00500599
0.00666105
0.00482453
0.00652658
0.00457125
0.0063764
0.00424134
0.00621564
0.00383001
0.00604915
0.00333293
0.00587629
0.002747
0.00570161
0.00205481
0.00553164
0.00125293
0.0053602
0.00034299
0.00520696
-0.000601104
0.00506151
-0.0015958
0.00494806
-0.00263596
0.00489171
-0.00365518
-0.00458331
0.0177346
0.00430444
0.0182811
0.00469101
0.0187717
0.00477388
0.0192485
0.00473193
0.0196983
0.00467684
0.0201128
0.00459147
0.0204974
0.00443997
0.0208584
0.00421017
0.0211989
0.00390083
0.0215204
0.00350857
0.0218242
0.00302909
0.0221087
0.00246251
0.0223736
0.00178996
0.022618
0.00100848
0.0228549
0.00010615
0.0230394
-0.000785655
0.0231831
-0.00173952
0.0232841
-0.0027369
0.0233022
-0.00367328
-0.00468892
0.0305065
0.00350465
0.0312234
0.00397414
0.0319417
0.00405557
0.0326931
0.00398053
0.0334477
0.00392228
0.0341974
0.00384171
0.034949
0.00368842
0.0357036
0.00345554
0.0364579
0.00314651
0.0372084
0.0027581
0.0379527
0.00228479
0.0386891
0.00172608
0.0394169
0.00106218
0.0401437
0.000281662
0.0407856
-0.00053576
0.0414136
-0.00141359
0.0419773
-0.00230325
0.0424842
-0.00324376
0.0428529
-0.00404202
-0.00504322
0.0459497
0.0029556
0.0465584
0.00336545
0.0472883
0.00332566
0.0480964
0.0031724
0.0489434
0.00307527
0.049841
0.00294417
0.0507937
0.00273566
0.0517921
0.00245718
0.0528262
0.00211245
0.0538879
0.00169633
0.0549663
0.00120646
0.0560693
0.000623051
0.0571913
-5.98107e-05
0.0582647
-0.00079171
0.0593141
-0.00158522
0.0603344
-0.00243389
0.0612874
-0.00325629
0.0621834
-0.00413971
0.0629526
-0.00481118
-0.00572954
0.0627091
0.00267917
0.0632754
0.00279915
0.0640645
0.00253654
0.0649192
0.00231777
0.0658346
0.00215983
0.0668372
0.00194153
0.0679158
0.00165705
0.0690546
0.00131842
0.0702454
0.000921681
0.0714778
0.000463954
0.0727549
-7.06691e-05
0.0740853
-0.000707333
0.0753973
-0.00137183
0.0767195
-0.00211396
0.0780176
-0.00288327
0.0792902
-0.00370655
0.0805021
-0.00446815
0.0816555
-0.00529314
0.0827127
-0.00586833
-0.00667835
0.0778473
0.00199612
0.0789446
0.00170182
0.0800159
0.0014652
0.0810546
0.00127912
0.0821471
0.00106733
0.0832901
0.000798536
0.0844685
0.000478675
0.0856792
0.000107684
0.0869512
-0.000350269
0.0882694
-0.000854276
0.089623
-0.0014243
0.0909853
-0.00206965
0.0923715
-0.00275798
0.0937701
-0.0035126
0.0951574
-0.00427059
0.0965331
-0.00508225
0.0978669
-0.00580186
0.0991619
-0.00658821
0.100393
-0.00709897
-0.007797
0.105684
0.00269443
-0.106383
0.105031
0.00235571
0.104495
0.00200066
0.104125
0.00164955
0.103914
0.001278
0.103835
0.000877801
0.103865
0.00044865
0.10399
-1.72146e-05
0.104164
-0.000524218
0.104388
-0.00107891
0.104636
-0.00167192
0.104889
-0.00232281
0.105126
-0.00299495
0.105328
-0.00371514
0.10547
-0.00441238
0.105543
-0.00515494
0.105525
-0.00578427
0.105416
-0.00647924
0.105214
-0.00689647
-0.00745987
0.114913
0.0027186
-0.114937
0.114843
0.00242564
0.114751
0.00209201
0.11469
0.00171077
0.11467
0.00129805
0.114686
0.000862162
0.114725
0.000408988
0.11479
-8.13402e-05
0.114872
-0.000606438
0.114959
-0.00116643
0.11504
-0.00175271
0.1151
-0.00238262
0.115121
-0.00301616
0.115094
-0.00368822
0.115002
-0.00432029
0.11484
-0.00499271
0.114598
-0.00554261
0.114276
-0.00615661
0.113884
-0.00650475
-0.00701376
0.120654
0.00277306
-0.120708
0.120711
0.002368
0.120812
0.00199112
0.120929
0.00159349
0.121054
0.00117309
0.121182
0.000734159
0.121314
0.000277682
0.121439
-0.000206692
0.121546
-0.000713043
0.121629
-0.00124996
0.121678
-0.00180129
0.121683
-0.00238767
0.121633
-0.00296667
0.121524
-0.00357885
0.121345
-0.00414124
0.121094
-0.00474218
0.12077
-0.00521872
0.120376
-0.00576267
0.119931
-0.00605924
-0.00652097
0.124617
0.00270723
-0.124551
0.124754
0.00223169
0.124931
0.00181375
0.125119
0.00140516
0.125305
0.000987337
0.125486
0.000553592
0.125654
0.000109668
0.125804
-0.000357541
0.125926
-0.000834947
0.126014
-0.00133768
0.126058
-0.00184549
0.126052
-0.00238153
0.125988
-0.00290249
0.125861
-0.00345239
0.125668
-0.00394753
0.125406
-0.00448028
0.125079
-0.00489166
0.12469
-0.00537381
0.124257
-0.00562622
-0.0060419
0.127773
0.00251854
-0.127584
0.127967
0.00203722
0.128179
0.00160152
0.128397
0.00118776
0.128606
0.000777749
0.128801
0.000358776
0.128979
-6.79525e-05
0.12913
-0.000509301
0.129251
-0.000955904
0.129335
-0.00142157
0.129375
-0.0018854
0.129365
-0.00237153
0.1293
-0.0028373
0.129176
-0.00332807
0.128991
-0.00376262
0.128744
-0.00423326
0.128441
-0.00458876
0.128082
-0.00501507
0.127686
-0.00523025
-0.00560414
0.130762
0.00228147
-0.130525
0.130983
0.00181604
0.131205
0.00137995
0.131424
0.000968745
0.131631
0.000570507
0.13182
0.000169671
0.131987
-0.000234585
0.132126
-0.000648772
0.132234
-0.00106379
0.132305
-0.00149259
0.132335
-0.00191457
0.132317
-0.00235377
0.132249
-0.00276935
0.132127
-0.00320635
0.131952
-0.00358794
0.131723
-0.00400339
0.131445
-0.00431153
0.131118
-0.00468794
0.130761
-0.0048726
-0.00520749
0.133882
0.00203467
-0.133635
0.134108
0.00159013
0.134322
0.00116581
0.134525
0.000765575
0.134713
0.000382704
0.134881
1.58589e-06
0.135025
-0.00037802
0.13514
-0.000764464
0.135225
-0.00114819
0.135274
-0.00154157
0.135284
-0.00192465
0.135251
-0.0023208
0.135173
-0.0026916
0.135047
-0.00308061
0.134876
-0.00341634
0.134656
-0.00378326
0.134395
-0.00405131
0.134091
-0.00438356
0.133761
-0.00454296
-0.00484119
0.137191
0.00178907
-0.136945
0.137409
0.0013721
0.137605
0.000968986
0.137784
0.000586642
0.137944
0.000222726
0.138083
-0.00013699
0.138196
-0.000491017
0.138281
-0.000849325
0.138335
-0.00120242
0.138355
-0.00156203
0.13834
-0.00190912
0.138285
-0.00226596
0.13819
-0.00259685
0.138053
-0.00294311
0.137875
-0.00323897
0.137655
-0.00356318
0.137401
-0.00379705
0.137108
-0.00409022
0.136793
-0.00422832
-0.00449262
0.140635
0.00155415
-0.1404
0.140837
0.0011705
0.141011
0.000794633
0.141163
0.000435213
0.141292
9.33853e-05
0.141398
-0.000242708
0.141477
-0.000570575
0.141528
-0.000900452
0.14155
-0.00122346
0.141538
-0.00155067
0.141493
-0.00186416
0.141412
-0.00218484
0.141295
-0.00247975
0.141139
-0.00278763
0.140949
-0.0030484
0.14072
-0.00333473
0.140462
-0.00353907
0.14017
-0.00379743
0.139859
-0.00391731
-0.00415054
0.14413
0.00133952
-0.143916
0.14431
0.000990829
0.144459
0.000645394
0.144582
0.000312536
0.14468
-4.8309e-06
0.144752
-0.000314892
0.144798
-0.000615877
0.144814
-0.000917079
0.144801
-0.00121039
0.144757
-0.00150627
0.144681
-0.00178796
0.144571
-0.00207493
0.144428
-0.00233694
0.14425
-0.00260992
0.144041
-0.00283936
0.143798
-0.00309172
0.143529
-0.00327014
0.143229
-0.00349727
0.142913
-0.00360132
-0.00380626
0.147585
0.00114989
-0.147396
0.14774
0.000836067
0.147863
0.00052273
0.147956
0.000219002
0.148023
-7.15827e-05
0.148062
-0.00035396
0.148073
-0.000627208
0.148056
-0.000899495
0.148009
-0.00116339
0.147931
-0.00142871
0.147823
-0.00167997
0.147683
-0.00193514
0.147513
-0.00216665
0.147311
-0.00240752
0.14708
-0.00260856
0.146818
-0.00283011
0.146534
-0.00298541
0.146221
-0.00318435
0.145894
-0.00327444
-0.00345374
0.150909
0.000986143
-0.150746
0.151038
0.000707359
0.151134
0.000427172
0.151198
0.000154418
0.151234
-0.00010744
0.151241
-0.000361051
0.15122
-0.000605754
0.151169
-0.000848865
0.151089
-0.00108355
0.15098
-0.00131893
0.15084
-0.00154084
0.150671
-0.00176574
0.150473
-0.00196864
0.150245
-0.00217965
0.149991
-0.0023546
0.149709
-0.00254795
0.149406
-0.00268234
0.149077
-0.00285571
0.148736
-0.0029333
-0.00308946
0.154005
0.000847391
-0.153866
0.154108
0.000603926
0.154178
0.000357733
0.154215
0.000116902
0.154222
-0.000114615
0.1542
-0.000338637
0.154148
-0.000554178
0.154067
-0.00076789
0.153957
-0.000973554
0.153818
-0.00117953
0.15365
-0.00137297
0.153453
-0.00156883
0.153229
-0.00174463
0.152977
-0.00192762
0.152701
-0.00207835
0.152399
-0.00224563
0.152077
-0.00236087
0.151732
-0.00251089
0.151376
-0.00257717
-0.00271244
0.156763
0.00073052
-0.156646
0.156845
0.000522204
0.156892
0.000310265
0.156907
0.000102298
0.15689
-9.80285e-05
0.156843
-0.000291685
0.156767
-0.00047766
0.156661
-0.000661865
0.156526
-0.000838693
0.156362
-0.0010157
0.15617
-0.00118139
0.155951
-0.0013492
0.155705
-0.0014991
0.155433
-0.00165549
0.155138
-0.00178347
0.154819
-0.00192636
0.154482
-0.00202385
0.154123
-0.00215227
0.153754
-0.00220816
-0.00232439
0.159075
0.000628487
-0.158973
0.159143
0.000454719
0.159176
0.000277146
0.159176
0.000102346
0.159143
-6.59138e-05
0.159081
-0.000228773
0.158988
-0.000384865
0.158865
-0.000539447
0.158714
-0.000687567
0.158534
-0.000835895
0.158327
-0.000974335
0.158093
-0.00111474
0.157833
-0.00123962
0.157548
-0.00137036
0.157241
-0.00147664
0.156911
-0.00159624
0.156564
-0.00167699
0.156197
-0.00178491
0.15582
-0.00183108
-0.00192939
0.16086
0.000529993
-0.160762
0.160925
0.000390182
0.160955
0.000246898
0.160951
0.000105746
0.160915
-2.99215e-05
0.160848
-0.000161457
0.160751
-0.000287329
0.160623
-0.000412052
0.160467
-0.000531386
0.160282
-0.000651016
0.16007
-0.000762397
0.159831
-0.000875599
0.159567
-0.000975873
0.159278
-0.00108133
0.158968
-0.0011665
0.158635
-0.00126321
0.158286
-0.00132781
0.157917
-0.00141553
0.157538
-0.0014524
-0.00153297
0.162107
0.000422429
-0.161999
0.16218
0.000316418
0.16222
0.000207763
0.162225
0.000100647
0.162196
-1.77695e-06
0.162136
-0.000101313
0.162046
-0.00019651
0.161924
-0.000290883
0.161774
-0.00038105
0.161595
-0.000471609
0.161388
-0.000555721
0.161154
-0.000641451
0.160895
-0.000717086
0.160611
-0.00079705
0.160305
-0.000861224
0.159977
-0.000934764
0.159633
-0.000983387
0.159268
-0.00105045
0.158893
-0.00107819
-0.00114029
0.162889
0.000297744
-0.162764
0.16298
0.000225745
0.163035
0.000152304
0.163056
8.02293e-05
0.163042
1.12972e-05
0.162996
-5.5295e-05
0.162919
-0.000119264
0.162811
-0.000182664
0.162673
-0.000243151
0.162506
-0.00030406
0.16231
-0.000360441
0.162087
-0.000418138
0.161839
-0.000468787
0.161564
-0.0005227
0.161269
-0.000565636
0.160949
-0.000615361
0.160614
-0.000647867
0.160257
-0.000693386
0.15989
-0.000711939
-0.000754368
0.163328
0.000156179
-0.163186
0.163435
0.000118205
0.163507
8.06518e-05
0.163543
4.43983e-05
0.163544
1.03588e-05
0.163512
-2.36348e-05
0.163448
-5.54608e-05
0.163353
-8.74455e-05
0.163228
-0.000117791
0.163072
-0.000148559
0.162888
-0.000176704
0.162676
-0.000205909
0.162438
-0.000231077
0.162174
-0.000258516
0.161888
-0.00027969
0.161578
-0.000305218
0.161251
-0.000320987
0.160903
-0.00034466
0.160544
-0.000353228
-0.000375306
0.163523
-0.163366
0.163641
0.163721
0.163766
0.163776
0.163753
0.163697
0.16361
0.163492
0.163343
0.163167
0.162961
0.16273
0.162471
0.162191
0.161886
0.161565
0.161221
0.160867
0.0959214
0.0174962
-0.0944013
0.0975941
0.0275358
0.0994524
0.0375297
0.101444
0.0473976
0.103638
0.0568622
0.105908
0.0659972
0.107989
0.0745205
0.110151
0.0817546
0.108835
0.0896864
0.089225
0.0976561
0.0161002
-0.0962602
0.0992504
0.0259415
0.101092
0.0356877
0.103161
0.0453288
0.105385
0.0546388
0.108024
0.0633581
0.110303
0.0722409
0.11349
0.0785679
0.11531
0.0878665
0.0895982
0.0996345
0.0148367
-0.0983709
0.101155
0.0244213
0.102915
0.0339272
0.105035
0.0432093
0.107237
0.0524359
0.110038
0.0605574
0.112659
0.0696207
0.115782
0.0754445
0.119151
0.084497
0.0880416
0.101772
0.0136854
-0.100621
0.103246
0.022948
0.104946
0.0322269
0.107072
0.0410832
0.109326
0.0501814
0.112055
0.0578289
0.114997
0.0666791
0.117887
0.0725539
0.121686
0.0806978
0.0851767
0.104019
0.0126187
-0.102952
0.105454
0.0215132
0.107154
0.0305263
0.109254
0.0389829
0.111625
0.0478107
0.114247
0.0552067
0.117371
0.0635551
0.120309
0.0696165
0.124086
0.07692
0.0816793
0.106333
0.0116106
-0.105325
0.107728
0.0201185
0.109467
0.0287868
0.111552
0.0368976
0.114043
0.0453199
0.116685
0.0525644
0.119898
0.0603428
0.12306
0.0664542
0.126774
0.0732061
0.077928
0.108671
0.0106451
-0.107705
0.110033
0.0187562
0.111817
0.0270024
0.113932
0.0347831
0.11652
0.0427314
0.119298
0.049787
0.122579
0.0570612
0.125972
0.063062
0.129731
0.0694463
0.0740241
0.110989
0.00971711
-0.110061
0.112337
0.0174087
0.114159
0.0251801
0.116344
0.0325979
0.119018
0.0400581
0.121967
0.0468379
0.125349
0.0536793
0.128947
0.059464
0.132866
0.0655272
0.0699451
0.113249
0.00882504
-0.112357
0.114599
0.0160586
0.116456
0.0233227
0.118732
0.030322
0.121496
0.0372941
0.124614
0.0437203
0.128144
0.0501487
0.131951
0.0556569
0.136097
0.0613812
0.0656421
0.115409
0.00796554
-0.11455
0.116773
0.0146947
0.11867
0.021426
0.121041
0.027951
0.123912
0.0344233
0.127194
0.0404376
0.13091
0.0464325
0.134941
0.051626
0.139344
0.056978
0.0610709
0.117429
0.00713277
-0.116596
0.118812
0.0133117
0.120756
0.0194823
0.123222
0.0254848
0.126214
0.0314309
0.129664
0.0369883
0.133582
0.0425138
0.137848
0.0473598
0.142523
0.0523031
0.0561987
0.119263
0.00632037
-0.11845
0.120667
0.0119073
0.122664
0.0174858
0.125225
0.022924
0.128345
0.0283099
0.131963
0.0333709
0.136088
0.0383891
0.140597
0.0428504
0.145552
0.047348
0.051005
0.120864
0.00552306
-0.120066
0.12229
0.0104811
0.124341
0.0154344
0.126994
0.0202714
0.130242
0.0250615
0.134025
0.0295884
0.138352
0.0340617
0.143106
0.0380961
0.148343
0.0421119
0.0454815
0.122184
0.00473644
-0.121397
0.123631
0.00903363
0.125736
0.0133302
0.128474
0.0175329
0.131842
0.0216936
0.135781
0.0256495
0.1403
0.0295424
0.145291
0.033105
0.150798
0.0366054
0.0396333
0.123186
0.00395543
-0.122405
0.124654
0.00756571
0.126806
0.011178
0.129621
0.0147182
0.133094
0.0182202
0.137173
0.0215706
0.141863
0.0248521
0.14707
0.0278983
0.152822
0.0308534
0.0334824
0.12386
0.00317321
-0.123078
0.125349
0.00607749
0.127542
0.0089844
0.13042
0.0118398
0.13398
0.0146605
0.138175
0.0173758
0.143005
0.0200217
0.148393
0.0225103
0.15435
0.0248965
0.027071
0.124251
0.00238372
-0.123461
0.125758
0.00457013
0.127984
0.00675821
0.130911
0.00891284
0.134535
0.0110374
0.138816
0.0130941
0.14375
0.0150883
0.149275
0.0169848
0.155386
0.0187857
0.0204578
0.124452
0.00158763
-0.123656
0.125973
0.00304884
0.128221
0.00451089
0.13118
0.00595394
0.134843
0.00737408
0.139182
0.00875496
0.144182
0.0100884
0.1498
0.0113668
0.156013
0.0125726
0.0137064
0.124559
0.000793242
-0.123765
0.126086
0.00152267
0.128341
0.00225518
0.131316
0.00297911
0.135
0.00369039
0.139371
0.00438392
0.144407
0.00505186
0.150079
0.00569524
0.156352
0.00629972
0.00687215
0.124616
-0.123823
0.126139
0.128394
0.131373
0.135064
0.139447
0.144499
0.150195
0.156494
0.0456797
0.0584155
-0.0525051
-0.0515901
0.0395914
0.057765
-0.0516768
0.0337552
0.0575373
-0.051701
0.0281129
0.0578357
-0.0521934
0.0225824
0.0585798
-0.0530492
0.0171194
0.059791
-0.0543281
0.0117182
0.0614376
-0.0560363
0.00652966
0.0624282
-0.0572397
0.00215589
0.0577908
-0.0534171
0.0342052
-0.0320493
0.0428063
0.0643584
-0.0487492
0.036952
0.0636193
0.031289
0.0632002
0.0258431
0.0632817
0.0205501
0.0638728
0.01535
0.0649911
0.01025
0.0665377
0.00545632
0.0672219
0.00162244
0.0616247
0.0358276
0.0391961
0.069934
-0.0447716
0.0336538
0.0691616
0.0282524
0.0686016
0.0230557
0.0684783
0.01804
0.0688885
0.013157
0.0698742
0.00843589
0.0712587
0.00414329
0.0715145
0.00097173
0.0647963
0.0367994
0.0345929
0.0750883
-0.0397472
0.0294971
0.0742574
0.024499
0.0735997
0.0196714
0.0733059
0.0150241
0.0735358
0.0105345
0.0743638
0.00626845
0.0755248
0.00258697
0.075196
0.000177528
0.0672057
0.0369769
0.0290749
0.0797698
-0.0337565
0.0244828
0.0788496
0.0199909
0.0780915
0.0156488
0.0776481
0.0114738
0.0777108
0.00747277
0.0783648
0.0037521
0.0792455
0.000742237
0.0782058
-0.000592899
0.0685409
0.036384
0.0226571
0.0838795
-0.0267667
0.0186579
0.0828488
0.0147638
0.0819856
0.0110034
0.0814084
0.00740004
0.0813142
0.00399191
0.081773
0.000967276
0.0822701
-0.00114872
0.0803218
-0.00142114
0.0688133
0.0349628
0.0154451
0.0873078
-0.0188734
0.01212
0.0861738
0.00889876
0.0852068
0.00579359
0.0845136
0.00284905
0.0842587
0.000119087
0.0845029
-0.00210109
0.0844903
-0.0031508
0.0813715
-0.00226666
0.0679292
0.0326962
0.00753163
0.0899713
-0.0101951
0.00494531
0.0887601
0.00247721
0.0876749
0.000121926
0.0868689
-0.00213652
0.0865171
-0.00410627
0.0864727
-0.00540134
0.0857854
-0.00528336
0.0812535
-0.00307952
0.0657253
0.0296167
-0.000981609
0.0919166
-0.000963701
-0.00275373
0.0905323
-0.00444532
0.0893665
-0.00606069
0.0884843
-0.00751318
0.0879696
-0.00861495
0.0875745
-0.00885194
0.0860224
-0.00739775
0.0797994
-0.00378635
0.0621139
0.0258303
-0.00991218
0.00898406
-0.0108462
-0.0117274
-0.0125304
-0.0131551
-0.0132933
-0.0123093
-0.00935468
-0.00429963
0.0427427
0.00403095
-0.0467736
0.03856
0.00418269
0.034201
0.00435893
0.0296427
0.0045583
0.0248538
0.00478891
0.0197929
0.0050609
0.0144177
0.00537523
0.00877202
0.00564567
0.00335196
0.00542006
0.00335196
0.0431805
0.0081747
-0.0473242
0.0388991
0.00846412
0.0344556
0.00880238
0.0298269
0.00918698
0.0249814
0.00963449
0.0198766
0.0101657
0.0144676
0.0107842
0.00879531
0.011318
0.00336587
0.0108495
0.00671783
0.0439964
0.012532
-0.0483537
0.039528
0.0129325
0.0349244
0.0134061
0.0301618
0.0139495
0.0252078
0.0145885
0.0200189
0.0153546
0.0145488
0.0162543
0.00883617
0.0170306
0.00337792
0.0163077
0.0100958
0.0450754
0.0171767
-0.0497201
0.0403545
0.0176534
0.0355338
0.0182268
0.0305897
0.0188937
0.0254891
0.019689
0.0201876
0.0206561
0.014637
0.0218049
0.00887303
0.0227946
0.00338658
0.0217942
0.0134823
0.0462614
0.0221507
-0.0512354
0.041249
0.0226658
0.0361775
0.0232983
0.0310253
0.0240458
0.0257591
0.0249552
0.0203324
0.0260827
0.0146953
0.0274421
0.00888196
0.0286079
0.00337912
0.027297
0.0168614
0.0473859
0.0274507
-0.0526859
0.0420782
0.0279735
0.0367472
0.0286293
0.0313795
0.0294136
0.0259444
0.0303903
0.0203945
0.0316326
0.0146789
0.0331577
0.00883279
0.034454
0.00334087
0.032789
0.0202023
0.0482266
0.0330633
-0.0538391
0.0426322
0.0335678
0.0370647
0.0341968
0.0315149
0.0349634
0.0259427
0.0359624
0.0202976
0.0372777
0.0145324
0.038923
0.00868945
0.0402969
0.00325578
0.0382226
0.0234581
0.0487594
0.0389233
-0.0546195
0.0428873
0.0394399
0.037104
0.0399801
0.0313977
0.0406698
0.0257133
0.0416468
0.0200003
0.0429907
0.0142185
0.0447047
0.00842426
0.0460912
0.00311595
0.0435309
0.0265741
0.0484115
0.0451991
-0.0546872
0.042337
0.0455144
0.0365095
0.0458075
0.0307798
0.0463995
0.0250824
0.0473442
0.0193866
0.0486866
0.0136641
0.0504272
0.00799248
0.0517628
0.00289679
0.0486266
0.0294708
0.0476514
-0.0549574
0.041489
0.0355955
0.0298015
0.0240965
0.018455
0.0128458
0.00736891
0.00257846
0.0509398
-0.000172616
0.0511106
-0.000170784
0.0512791
-0.00016844
0.0514391
-0.000160049
0.0515852
-0.00014606
0.0517121
-0.000126917
0.0518144
-0.000102272
0.0518857
-7.12912e-05
0.051918
-3.23646e-05
0.0519044
1.36004e-05
0.0518429
6.15037e-05
0.0517223
0.000120588
0.0515311
0.000191235
0.0512562
0.000274902
0.0508826
0.000373639
0.0503924
0.000490106
0.0497652
0.000627245
0.0489752
0.000790035
0.0479966
0.000978544
0.00122301
0.0517178
-0.000345241
0.0518862
-0.000339259
0.0520494
-0.000331574
0.0522027
-0.000313398
0.0523416
-0.000284939
0.052461
-0.000246294
0.0525552
-0.000196513
0.0526177
-0.000133824
0.0526401
-5.46697e-05
0.0526178
3.58183e-05
0.0525463
0.000132996
0.0524147
0.000252274
0.0522112
0.000394734
0.0519227
0.000563337
0.0515342
0.000762174
0.0510277
0.000996614
0.0503825
0.00127243
0.0495725
0.00160001
0.0485729
0.00197814
0.0024717
0.0532474
-0.000501876
0.0534003
-0.000492141
0.0535482
-0.000479459
0.0536858
-0.000451082
0.0538082
-0.000407303
0.05391
-0.00034809
0.0539855
-0.000271998
0.0540279
-0.000176215
0.0540287
-5.54587e-05
0.0539877
7.67626e-05
0.0538944
0.000226356
0.0537384
0.000408223
0.0535084
0.000624788
0.0531909
0.000880752
0.0527709
0.00118223
0.05223
0.0015375
0.0515477
0.00195475
0.0506967
0.00245103
0.0496546
0.0030202
0.00377262
0.0554674
-0.000628251
0.05559
-0.000614749
0.0557076
-0.000596995
0.0558147
-0.000558175
0.0559057
-0.000498389
0.0559753
-0.000417682
0.0560177
-0.000314321
0.0560252
-0.000183728
0.0559835
-1.38083e-05
0.0559086
0.000151734
0.0557769
0.000358044
0.0555792
0.000605916
0.0553043
0.000899636
0.0549388
0.00124626
0.0544673
0.00165379
0.0538708
0.00213398
0.0531292
0.00269631
0.0522128
0.00336741
0.0511043
0.0041287
0.00515684
0.0582943
-0.000704724
0.0583668
-0.000687233
0.0584332
-0.000663431
0.0584881
-0.000613051
0.0585253
-0.000535591
0.0585388
-0.000431216
0.0585218
-0.000297293
0.0584665
-0.000128386
0.0583815
7.11579e-05
0.0582457
0.000287489
0.0580509
0.000552905
0.057787
0.000869787
0.0574428
0.00124386
0.0570042
0.00168487
0.056456
0.00220195
0.055778
0.00281204
0.0549513
0.00352296
0.0539413
0.00437748
0.0527394
0.00533053
0.00666084
0.0616311
-0.000705582
0.0616272
-0.000683255
0.0616145
-0.000650804
0.0615883
-0.000586865
0.0615427
-0.000489976
0.0614723
-0.000360813
0.0613703
-0.00019529
0.0612217
2.02052e-05
0.0610546
0.000238302
0.0608291
0.000512953
0.0605414
0.000840647
0.0601817
0.00122946
0.0597389
0.00168666
0.0591976
0.00222616
0.0585436
0.00285599
0.0577533
0.00360234
0.0568116
0.00446465
0.0556747
0.00551437
0.054349
0.00665626
0.00832389
0.065379
-0.000598567
0.0652645
-0.00056877
0.0651356
-0.00052186
0.0649891
-0.000440372
0.064822
-0.000322889
0.0646259
-0.000164702
0.0643901
4.04782e-05
0.0641487
0.000261677
0.06385
0.000536966
0.0634956
0.000867404
0.063078
0.00125815
0.0625857
0.00172178
0.0620086
0.00226378
0.0613288
0.00290593
0.0605356
0.00364923
0.059599
0.00453895
0.0585125
0.00555112
0.0572142
0.00681266
0.0557299
0.00814056
0.0102148
0.0694445
-0.000334366
0.0691741
-0.000298288
0.0688854
-0.000233187
0.0685731
-0.000128066
0.0682273
2.29401e-05
0.0678698
0.000192719
0.0674964
0.000413906
0.0670744
0.000683694
0.0666055
0.00100588
0.066081
0.00139185
0.0654937
0.00184549
0.0648293
0.00238617
0.0640805
0.00301259
0.0632233
0.00376308
0.0622534
0.00461914
0.0611263
0.00566611
0.0598582
0.00681916
0.0583621
0.00830873
0.0567048
0.00979792
0.0123001
0.0737476
0.00014352
0.0732593
0.000190016
0.0727498
0.000276297
0.0722227
0.000399021
0.0716867
0.000559007
0.0711184
0.000760996
0.07052
0.00101226
0.069883
0.00132068
0.0692015
0.00168741
0.0684644
0.00212895
0.067666
0.00264393
0.0667886
0.0032636
0.0658309
0.00397027
0.0647617
0.00483224
0.0635923
0.00578852
0.0622432
0.00701527
0.0607646
0.00829773
0.0589754
0.0100979
0.0570881
0.0116852
0.014701
0.0782541
0.000953611
0.0774756
0.000968512
0.0766992
0.00105269
0.0759089
0.00118935
0.0751001
0.00136774
0.0742681
0.00159303
0.0734103
0.00187007
0.0725181
0.00221285
0.0715852
0.00262032
0.0705984
0.00311577
0.0695539
0.0036884
0.06843
0.00438752
0.0672332
0.00516702
0.06592
0.00614546
0.0645338
0.00717469
0.0629756
0.00857354
0.0614145
0.0098588
0.0595053
0.0120071
0.0577754
0.0134151
0.0175191
0.0766315
0.000888766
0.0766371
0.000962884
0.0766172
0.00107268
0.076591
0.0012155
0.076568
0.00139079
0.07655
0.00161102
0.0765397
0.00188037
0.0765369
0.00221566
0.0765467
0.00261045
0.0765678
0.00309473
0.0766141
0.00364204
0.0766802
0.00432148
0.076799
0.0050482
0.0769479
0.0059965
0.0772112
0.00691147
0.0775174
0.00826728
0.0780798
0.00929645
0.0787491
0.0113378
0.0801552
0.012009
0.0151265
0.0825478
0.0812673