/*--------------------------------*- C++ -*----------------------------------*\
| =========                 |                                                 |
| \\      /  F ield         | OpenFOAM: The Open Source CFD Toolbox           |
|  \\    /   O peration     | Version:  4.1                                   |
|   \\  /    A nd           | Web:      www.OpenFOAM.org                      |
|    \\/     M anipulation  |                                                 |
\*---------------------------------------------------------------------------*/
FoamFile
{
    version     2.0;
    format      ascii;
    class       surfaceScalarField;
    location    "4.5";
    object      phi;
}
// * * * * * * * * * * * * * * * * * * * * * * * * * * * * * * * * * * * * * //

dimensions      [0 3 -1 0 0 0 0];

internalField   nonuniform List<scalar> 
3890
(
0.000729253
0.000209526
-0.000938779
0.00332481
-0.00459021
0.00199466
0.00792556
-0.0124946
0.00789384
0.0142511
-0.0218098
0.0154842
0.0216481
-0.03101
0.023613
0.0293428
-0.038996
0.0313013
0.0366841
-0.0452336
0.0378923
0.0432516
-0.0496672
0.0430996
0.0487985
-0.052447
0.0469002
-0.0540193
0.0495174
0.0533004
0.000968579
-0.000759054
0.00421313
-0.00783476
0.00967522
-0.0179567
0.0167091
-0.0288437
0.0243491
-0.03865
0.031724
-0.046371
0.0382843
-0.0517939
0.0438107
-0.0551935
0.0483752
-0.0570115
-0.0578533
0.0522091
0.00125634
-0.0020154
0.00518038
-0.0117588
0.0113627
-0.024139
0.0187234
-0.0362044
0.0260943
-0.0460208
0.0326801
-0.0529568
0.0381489
-0.0572627
0.0425107
-0.0595553
0.0459727
-0.0604735
-0.0606166
0.0487361
0.00158017
-0.00359557
0.00614493
-0.0163235
0.0127814
-0.0307755
0.0200207
-0.0434437
0.0266833
-0.0526834
0.0322016
-0.0584751
0.036508
-0.0615691
0.0398063
-0.0628536
0.0423912
-0.0630584
-0.0627349
0.0445094
0.00191973
-0.00551531
0.00700185
-0.0214057
0.0137413
-0.0375149
0.0204478
-0.0501503
0.0261208
-0.0583564
0.0304886
-0.0628429
0.033712
-0.0647925
0.0361063
-0.0652479
0.0379841
-0.0649363
-0.0643104
0.0395597
0.00224767
-0.00776298
0.00764437
-0.0268024
0.0141228
-0.0439934
0.0199967
-0.0560241
0.0245641
-0.0629237
0.0278346
-0.0661135
0.0301236
-0.0670815
0.0317878
-0.0669121
0.0331095
-0.066258
-0.0654517
0.0342509
0.00253108
-0.0102941
0.00798792
-0.0322592
0.0138963
-0.0499018
0.0187701
-0.0608979
0.022238
-0.0663916
0.0245275
-0.068403
0.0260312
-0.0685852
0.0270914
-0.0679723
0.0279372
-0.0671039
-0.0662024
0.028688
0.00273542
-0.0130295
0.00798541
-0.0375092
0.0131071
-0.0550235
0.0169255
-0.0647163
0.0193691
-0.0688352
0.0208079
-0.0698418
0.0216505
-0.0694277
0.0221949
-0.0685167
0.0226142
-0.0675232
-0.0665762
0.022988
0.00283197
-0.0158614
0.00763861
-0.0423158
0.0118487
-0.0592336
0.0146311
-0.0674988
0.0161525
-0.0703566
0.0168571
-0.0705464
0.0171287
-0.0696993
0.0172088
-0.0685968
0.017219
-0.0675334
-0.0665683
0.0172112
0.00280477
-0.0186662
0.00699114
-0.0465022
0.0102349
-0.0624773
0.0120409
-0.0693048
0.0127431
-0.0710588
0.0128058
-0.0706091
0.0125663
-0.0694598
0.0122118
-0.0682423
0.0118251
-0.0671467
0.0114341
-0.0661773
-0.000736002
0.000736002
-0.00198761
0.00125161
-0.00330398
0.00131637
-0.00443702
0.00113304
-0.00522951
0.000792495
-0.00557135
0.000341836
-0.00538829
-0.000183053
-0.00464184
-0.00074645
-0.00333839
-0.00130345
-0.00178138
-0.00155701
-0.000653547
0.00138955
-0.00175244
0.0023505
-0.00287714
0.00244107
-0.00378441
0.00204031
-0.00431924
0.00132732
-0.00437211
0.000394707
-0.00387384
-0.000681321
-0.00277633
-0.00184396
-0.00107608
-0.00300371
-0.00399972
0.00114226
-0.000504486
0.00189403
-0.00132679
0.00317281
-0.00209241
0.00320669
-0.00257221
0.00252011
-0.00261529
0.0013704
-0.00211867
-0.000101911
-0.0010143
-0.0017857
0.000743119
-0.00360138
0.0031638
-0.00542439
-0.00703844
0.00620252
-0.000320965
0.002215
-0.000783243
0.00363509
-0.00106718
0.00349062
-0.00096137
0.0024143
-0.00031927
0.000728299
0.00094884
-0.00137002
0.00290777
-0.00374462
0.00557867
-0.00627228
0.00896466
-0.00881038
-0.0111324
0.0130587
-0.000135429
0.00235043
-0.000201483
0.00370114
6.84461e-05
0.00322069
0.00087389
0.00160886
0.00234746
-0.000745276
0.00457256
-0.00359512
0.00758121
-0.00675327
0.0113577
-0.0100488
0.0158545
-0.0133072
-0.0163695
0.0210916
2.92332e-05
0.0023212
0.00035929
0.00337108
0.00122412
0.00235587
0.00280478
2.819e-05
0.00522578
-0.00316628
0.00854295
-0.00691228
0.0127372
-0.0109476
0.0177225
-0.015034
0.0233621
-0.0189468
-0.022656
0.0296486
0.000163984
0.00215721
0.000879486
0.00265558
0.00236555
0.000869807
0.00479341
-0.00239967
0.00825844
-0.00663131
0.0127572
-0.011411
0.0181804
-0.0163708
0.0243342
-0.0211878
0.0309776
-0.0255902
-0.0296733
0.0379949
0.000279693
0.00187752
0.00138331
0.00155197
0.00353641
-0.00128329
0.00688903
-0.0057523
0.0114702
-0.0112125
0.0171593
-0.0171001
0.023705
-0.0229166
0.0307816
-0.0282643
0.0380608
-0.0328694
-0.0368764
0.0452639
0.000397636
0.00147988
0.00192449
2.51066e-05
0.00481746
-0.00417626
0.00916971
-0.0101045
0.0148718
-0.0169146
0.0216119
-0.0238402
0.0289596
-0.0302642
0.036481
-0.0357858
0.0438208
-0.0402092
-0.0436257
0.0505701
0.000541107
0.00256087
0.00627845
0.0116581
0.0183566
0.0258177
0.0334457
0.0407596
0.0474506
0.0533423
0.000417099
-0.00197411
0.00257472
-0.00215762
0.00491172
-0.002337
0.00740002
-0.00248829
0.0100057
-0.00260565
0.0126957
-0.00269008
0.0154392
-0.0027435
0.0182072
-0.00276798
0.0209733
-0.00276602
0.0237138
-0.0027405
0.0264082
-0.00269447
0.029039
-0.00263082
0.0315914
-0.00255239
0.0340542
-0.00246274
0.0364196
-0.00236545
0.0386834
-0.00226377
0.0408451
-0.00216172
0.0429043
-0.00205918
0.0448763
-0.001972
-0.00186044
0.00312145
-0.0039533
0.00526081
-0.00429699
0.00756352
-0.00463971
0.0100042
-0.00492895
0.0125495
-0.00515093
0.0151675
-0.00530817
0.017829
-0.00540497
0.0205065
-0.00544547
0.023175
-0.00543451
0.0258123
-0.00537783
0.0283993
-0.00528151
0.0309199
-0.00515139
0.0333606
-0.00499306
0.0357113
-0.00481346
0.0379656
-0.00461973
0.0401196
-0.00441783
0.0421745
-0.00421661
0.0441277
-0.00401233
0.0459994
-0.00384373
-0.003614
0.00817958
-0.00593036
0.0102781
-0.00639549
0.0125115
-0.00687313
0.0148583
-0.00727578
0.0172863
-0.00757886
0.0197657
-0.00778764
0.0222705
-0.00790972
0.0247762
-0.00795118
0.0272606
-0.00791889
0.029704
-0.00782127
0.03209
-0.00766749
0.0344049
-0.0074663
0.0366378
-0.00722591
0.0387807
-0.00695633
0.0408292
-0.00666826
0.0427808
-0.00636945
0.0446386
-0.00607444
0.0463989
-0.00577263
0.0480839
-0.00552865
-0.00518598
0.0150087
-0.0078804
0.0170328
-0.00841958
0.0191549
-0.00899526
0.0213585
-0.00947933
0.0236134
-0.00983384
0.0258937
-0.0100679
0.0281771
-0.0101932
0.0304435
-0.0102176
0.0326741
-0.0101495
0.0348527
-0.00999987
0.0369662
-0.0097809
0.0390042
-0.00950432
0.0409591
-0.00918081
0.0428257
-0.00882295
0.0446025
-0.00844504
0.0462884
-0.00805534
0.0478892
-0.00767526
0.0493998
-0.00728326
0.0508451
-0.0069739
-0.00652516
0.0229458
-0.00973465
0.0248343
-0.010308
0.0267852
-0.0109462
0.0287848
-0.0114788
0.0308069
-0.0118559
0.0328299
-0.0120909
0.0348363
-0.0121996
0.0368096
-0.0121909
0.0387348
-0.0120747
0.0405995
-0.0118645
0.0423941
-0.0115756
0.0441124
-0.0112226
0.0457502
-0.0108187
0.0473054
-0.0103782
0.0487795
-0.00991912
0.0501728
-0.00944861
0.0514937
-0.00899617
0.0527359
-0.00852543
0.0539257
-0.0081637
-0.00762131
0.0312989
-0.0113849
0.0329645
-0.0119736
0.0346673
-0.012649
0.0363922
-0.0132037
0.0381194
-0.0135831
0.0398326
-0.0138041
0.0415169
-0.0138839
0.0431587
-0.0138326
0.0447462
-0.0136622
0.046271
-0.0133893
0.0477277
-0.0130323
0.0491138
-0.0126086
0.0504289
-0.0121337
0.0516734
-0.0116227
0.0528514
-0.0110971
0.0539639
-0.0105611
0.055021
-0.0100533
0.056015
-0.00951947
0.0569719
-0.00912062
-0.00850206
0.0393258
-0.0127158
0.0406828
-0.0133306
0.0420646
-0.0140309
0.0434533
-0.0145923
0.0448377
-0.0149676
0.0462054
-0.0151719
0.0475418
-0.0152204
0.048835
-0.0151258
0.0500772
-0.0149045
0.0512643
-0.0145764
0.0523952
-0.0141631
0.0534709
-0.0136843
0.0544942
-0.013157
0.055467
-0.0125955
0.0563942
-0.0120243
0.057276
-0.011443
0.0581225
-0.0108997
0.058924
-0.010321
0.0597041
-0.00990067
-0.00922502
0.0462212
-0.0136731
0.0472363
-0.0143458
0.0482642
-0.0150588
0.0492931
-0.0156212
0.0503217
-0.0159962
0.0513386
-0.0161887
0.0523301
-0.0162119
0.0532892
-0.0160849
0.0542141
-0.0158294
0.0551052
-0.0154675
0.0559643
-0.0150222
0.0567941
-0.0145141
0.0575988
-0.0139618
0.0583791
-0.0133758
0.059138
-0.0127831
0.059873
-0.012178
0.060592
-0.0116187
0.0612832
-0.0110122
0.0619659
-0.0105834
-0.00986588
0.0512219
-0.0143248
0.0519579
-0.0150818
0.0526679
-0.0157688
0.0533714
-0.0163247
0.0540763
-0.0167011
0.0547748
-0.0168872
0.0554652
-0.0169023
0.0561521
-0.0167718
0.05684
-0.0165172
0.0575308
-0.0161583
0.0582247
-0.0157162
0.0589206
-0.01521
0.0596185
-0.0146596
0.0603159
-0.0140732
0.0610125
-0.0134797
0.0617021
-0.0128677
0.0623894
-0.012306
0.0630609
-0.0116837
0.0637327
-0.0112552
-0.0105076
0.0541513
-0.0151338
0.0546969
-0.0156275
0.0551476
-0.0162194
0.0555729
-0.01675
0.056004
-0.0171322
0.0564574
-0.0173406
0.056944
-0.0173889
0.0574707
-0.0172986
0.0580409
-0.0170874
0.0586538
-0.0167711
0.0593047
-0.0163671
0.0599851
-0.0158905
0.0606878
-0.0153623
0.0614065
-0.0147919
0.0621377
-0.0142109
0.0628725
-0.0136025
0.0636112
-0.0130447
0.064341
-0.0124135
0.0650726
-0.0119867
-0.0112269
0.0799193
-0.013546
-0.0815071
0.0786351
-0.0143433
0.0773522
-0.0149365
0.076034
-0.0154318
0.0747046
-0.0158028
0.0733899
-0.0160258
0.0721062
-0.0161052
0.0708649
-0.0160573
0.0696762
-0.0158986
0.0685485
-0.0156435
0.0674887
-0.0153073
0.0665016
-0.0149035
0.0655904
-0.0144511
0.0647556
-0.0139572
0.0639957
-0.0134509
0.0633066
-0.0129135
0.0626821
-0.0124202
0.0621187
-0.0118501
0.0616025
-0.0114705
-0.0107737
0.0816643
-0.0121079
-0.0831025
0.0802633
-0.0129423
0.0789036
-0.0135768
0.0775402
-0.0140684
0.0761746
-0.0144372
0.0748266
-0.0146779
0.0735123
-0.0147909
0.072242
-0.014787
0.0710238
-0.0146805
0.069865
-0.0144847
0.0687716
-0.0142138
0.0677476
-0.0138795
0.0667949
-0.0134983
0.0659134
-0.0130757
0.065101
-0.0126385
0.0643552
-0.0121676
0.0636688
-0.0117338
0.0630417
-0.0112231
0.0624555
-0.0108843
-0.010242
0.0823279
-0.0107523
-0.0836835
0.0809599
-0.0115743
0.079613
-0.0122299
0.0782741
-0.0127295
0.076938
-0.0131011
0.0756163
-0.0133562
0.0743237
-0.0134983
0.073071
-0.0135343
0.0718664
-0.0134759
0.0707166
-0.0133349
0.0696267
-0.013124
0.0686003
-0.0128531
0.0676389
-0.0125369
0.0667427
-0.0121794
0.0659094
-0.0118052
0.0651374
-0.0113956
0.0644197
-0.0110161
0.0637569
-0.0105603
0.063131
-0.0102585
-0.00967124
0.0822726
-0.00951154
-0.0835134
0.0810076
-0.0103093
0.0797401
-0.0109623
0.078473
-0.0114625
0.0772075
-0.0118355
0.075952
-0.0121007
0.0747189
-0.0122652
0.0735189
-0.0123343
0.07236
-0.0123169
0.0712482
-0.0122231
0.0701884
-0.0120642
0.069184
-0.0118487
0.0682367
-0.0115896
0.067347
-0.0112897
0.0665133
-0.0109715
0.0657344
-0.0106167
0.0650044
-0.010286
0.0643246
-0.00988047
0.0636788
-0.00961265
-0.0090778
0.0818183
-0.00841478
-0.082915
0.0806818
-0.00917284
0.079523
-0.00980355
0.0783529
-0.0102924
0.0771788
-0.0106614
0.0760092
-0.0109311
0.0748544
-0.0111104
0.0737243
-0.0112043
0.0726267
-0.0112194
0.0715678
-0.0111642
0.0705522
-0.0110486
0.0695833
-0.0108799
0.0686632
-0.0106695
0.067793
-0.0104194
0.0669714
-0.0101499
0.0661983
-0.0098436
0.0654684
-0.00955619
0.0647841
-0.00919618
0.0641305
-0.00895902
-0.00847315
0.081204
-0.00745926
-0.0821595
0.0801926
-0.00816139
0.079145
-0.00875599
0.0780765
-0.00922387
0.0769976
-0.00958242
0.0759171
-0.00985055
0.0748443
-0.0100376
0.0737881
-0.0101481
0.0727563
-0.0101875
0.0717548
-0.0101627
0.0707884
-0.0100822
0.0698607
-0.00995216
0.0689739
-0.00978268
0.0681295
-0.00957504
0.067327
-0.00934744
0.0665669
-0.00908348
0.0658448
-0.00883413
0.0651638
-0.00851515
0.0645103
-0.00830553
-0.00786546
0.080565
-0.00662091
-0.0814033
0.0796633
-0.0072597
0.0787175
-0.00781023
0.0777439
-0.0082503
0.0767542
-0.00859266
0.0757574
-0.00885377
0.0747622
-0.00904243
0.0737768
-0.00916273
0.0728084
-0.00921918
0.0718632
-0.00921741
0.0709456
-0.00916465
0.0700596
-0.00906611
0.0692075
-0.00893056
0.0683912
-0.00875874
0.0676108
-0.00856702
0.0668672
-0.00833995
0.0661571
-0.00812401
0.0654839
-0.00784196
0.0648354
-0.00765705
-0.00725979
0.0799644
-0.00587559
-0.0807097
0.079155
-0.00645038
0.0782977
-0.0069529
0.0774079
-0.00736053
0.0764975
-0.00768226
0.0755756
-0.00793185
0.0746503
-0.00811709
0.0737291
-0.00824161
0.0728191
-0.00830912
0.0719259
-0.00832421
0.0710542
-0.00829297
0.0702078
-0.00821971
0.0693893
-0.00811209
0.068601
-0.00797042
0.0678433
-0.00780931
0.0671177
-0.00761439
0.0664215
-0.00742778
0.0657586
-0.00717906
0.065118
-0.00701641
-0.00665922
0.0794252
-0.00520462
-0.0800962
0.078692
-0.00571713
0.0779094
-0.00617032
0.0770917
-0.00654281
0.0762502
-0.00684075
0.0753937
-0.00707537
0.0745299
-0.00725327
0.0736658
-0.00737752
0.0728079
-0.00745121
0.0719617
-0.00747802
0.0711318
-0.00746306
0.0703219
-0.00740988
0.069535
-0.00732513
0.0687733
-0.00720875
0.0680378
-0.00707378
0.0673303
-0.00690692
0.0666487
-0.00674615
0.0659972
-0.00652762
0.0653659
-0.00638509
-0.00606555
0.0789507
-0.0045931
-0.0795623
0.0782796
-0.00504601
0.0775596
-0.00545028
0.0768032
-0.00578639
0.0760209
-0.00605848
0.0752211
-0.00627555
0.0744109
-0.00644305
0.0735968
-0.0065635
0.072785
-0.00663939
0.0719807
-0.0066737
0.0711883
-0.0066707
0.0704117
-0.00663325
0.0696537
-0.00656709
0.0689168
-0.00647193
0.0682024
-0.0063593
0.0675124
-0.00621701
0.0668454
-0.00607907
0.0662058
-0.00588803
0.0655844
-0.00576375
-0.00547973
0.0785365
-0.00402914
-0.0791005
0.0779162
-0.00442568
0.0772483
-0.00478239
0.0765438
-0.00508187
0.0758122
-0.00532686
0.0750612
-0.00552454
0.0742974
-0.0056793
0.073527
-0.00579314
0.0727557
-0.00586806
0.0719885
-0.00590644
0.0712296
-0.00591181
0.0704828
-0.00588647
0.069751
-0.00583534
0.0690371
-0.00575796
0.0683422
-0.00566444
0.0676689
-0.00554376
0.067016
-0.00542608
0.0663881
-0.00526019
0.0657769
-0.00515255
-0.00490214
0.078177
-0.00350342
-0.0787027
0.0775982
-0.00384692
0.0769737
-0.00415786
0.0763129
-0.00442106
0.0756244
-0.00463833
0.0749152
-0.00481535
0.0741915
-0.00495561
0.073459
-0.00506067
0.072723
-0.00513208
0.0719883
-0.00517174
0.071259
-0.00518254
0.0705389
-0.00516632
0.0698308
-0.00512724
0.0691376
-0.00506475
0.0684608
-0.00498762
0.067803
-0.00488602
0.0671634
-0.00478641
0.0665468
-0.00464365
0.0659455
-0.00455125
-0.00433279
0.0778672
-0.00300849
-0.0783621
0.0773224
-0.00330208
0.0767337
-0.00356918
0.0761094
-0.00379682
0.0754573
-0.00398616
0.0747836
-0.00414171
0.0740942
-0.0042662
0.0733944
-0.00436079
0.072689
-0.00442669
0.0719826
-0.00446539
0.0712793
-0.00447923
0.0705827
-0.00446966
0.0698956
-0.00444017
0.069221
-0.00439016
0.0685605
-0.00432715
0.067917
-0.0042425
0.0672897
-0.00415908
0.0666838
-0.00403773
0.0660919
-0.00395936
-0.00377139
0.0776033
-0.00253822
-0.0780735
0.0770859
-0.00278471
0.0765266
-0.00300989
0.0759326
-0.00320285
0.0753109
-0.00336437
0.0746671
-0.00349797
0.0740067
-0.00360577
0.0733345
-0.00368863
0.0726553
-0.00374746
0.0719733
-0.00378341
0.0712924
-0.00379837
0.0706162
-0.00379344
0.0699476
-0.00377152
0.0692894
-0.003732
0.0686435
-0.00368121
0.0680127
-0.00361173
0.0673966
-0.00354295
0.0668004
-0.00344154
0.0662172
-0.00337617
-0.0032174
0.077382
-0.00208748
-0.0778327
0.0768866
-0.00228938
0.0763511
-0.00247438
0.0757819
-0.0026336
0.075185
-0.00276754
0.074566
-0.00287894
0.0739297
-0.00296943
0.0732807
-0.00303962
0.0726234
-0.00309019
0.071962
-0.00312201
0.0713002
-0.00313654
0.0706414
-0.00313466
0.0699885
-0.00311868
0.0693446
-0.00308804
0.0687113
-0.00304792
0.0680917
-0.00299213
0.0674854
-0.00293669
0.0668979
-0.002854
0.0663225
-0.00280078
-0.00267013
0.0772006
-0.00165195
-0.0776362
0.0767227
-0.00181138
0.076206
-0.00195775
0.0756565
-0.00208409
0.0750797
-0.00219077
0.0744807
-0.00227988
0.0738639
-0.00235265
0.0732338
-0.0024095
0.0725945
-0.00245091
0.07195
-0.00247752
0.0713039
-0.00249045
0.0706596
-0.00249036
0.0700199
-0.00247902
0.0693879
-0.00245598
0.0687652
-0.00242528
0.0681552
-0.00238204
0.0675573
-0.00233887
0.0669772
-0.00227391
0.0664086
-0.00223213
-0.00212871
0.077057
-0.00122798
-0.077481
0.0765923
-0.00134669
0.0760902
-0.00145565
0.075556
-0.00154985
0.0749948
-0.00162959
0.0744114
-0.00169642
0.0738099
-0.00175121
0.0731947
-0.00179424
0.0725696
-0.00182583
0.0719385
-0.00184645
0.071305
-0.00185689
0.0706722
-0.00185763
0.0700432
-0.00184994
0.0694207
-0.00183351
0.0688067
-0.00181128
0.0682043
-0.00177967
0.0676134
-0.00174793
0.0670394
-0.00169998
0.0664764
-0.00166904
-0.00159215
0.0769492
-0.000812592
-0.0773646
0.0764943
-0.000891786
0.076003
-0.000964264
0.07548
-0.00102688
0.0749303
-0.00107995
0.0743584
-0.00112452
0.0737684
-0.00116116
0.0731642
-0.00119004
0.0725497
-0.00121135
0.0719287
-0.00122541
0.0713045
-0.00123271
0.0706805
-0.00123359
0.0700593
-0.00122884
0.0694441
-0.00121831
0.0688367
-0.00120381
0.0682402
-0.0011832
0.0676545
-0.00116223
0.0670853
-0.00113077
0.0665264
-0.00111017
-0.00105939
0.0768763
-0.000403334
-0.0772855
0.0764282
-0.000443752
0.0759442
-0.000480211
0.0754288
-0.000511495
0.0748868
-0.00053799
0.0743226
-0.000560298
0.0737401
-0.00057868
0.0731433
-0.000593195
0.0725359
-0.000603928
0.0719215
-0.000611049
0.0713036
-0.000614789
0.0706853
-0.000615358
0.0700696
-0.000613059
0.0694592
-0.000607982
0.0688561
-0.000600718
0.0682637
-0.000590751
0.0676814
-0.000579952
0.0671157
-0.000565024
0.0665591
-0.000553632
-0.000529893
0.0768383
-0.0772416
0.0763945
0.0759143
0.0754028
0.0748649
0.0743046
0.0737259
0.0731327
0.0725287
0.0719177
0.0713029
0.0706876
0.0700745
0.0694665
0.0688658
0.068275
0.0676951
0.0671301
0.0665764
0.0665914
0.0101883
-0.0653455
0.0680354
0.0157671
0.0696764
0.0213469
0.0715151
0.0268493
0.0735181
0.0322479
0.0756814
0.0373964
0.0777461
0.0424447
0.0798482
0.0466339
0.0807057
0.0513516
0.052499
0.0657292
0.00906034
-0.0646012
0.0670865
0.0144098
0.0686679
0.0197655
0.070493
0.0250242
0.0724942
0.0302467
0.0747695
0.0351211
0.0770087
0.0402055
0.0795373
0.0441053
0.0816112
0.0492777
0.0510077
0.0649971
0.00806378
-0.0640005
0.0662479
0.013159
0.0677359
0.0182774
0.069502
0.0232582
0.0714573
0.0282914
0.0737284
0.03285
0.0760946
0.0378394
0.0787146
0.0414852
0.081484
0.0465084
0.0488082
0.0643915
0.00718274
-0.0635105
0.0655411
0.0120094
0.0669388
0.0168797
0.0686297
0.0215673
0.070546
0.026375
0.0727639
0.0306321
0.0752212
0.0353821
0.0778293
0.0388771
0.0808429
0.0434948
0.0461377
0.0638893
0.00639601
-0.0631026
0.0649518
0.0109469
0.0662764
0.0155552
0.0678914
0.0199523
0.0697736
0.0244927
0.0719192
0.0284865
0.074391
0.0329103
0.0769684
0.0362997
0.0799942
0.040469
0.0432169
0.0634668
0.00568729
-0.0627581
0.0644546
0.0099591
0.06572
0.0142899
0.0672656
0.0184067
0.069108
0.0226503
0.0711853
0.0264092
0.0736167
0.030479
0.0761737
0.0337427
0.0791409
0.0375018
0.0401982
0.0631072
0.00504519
-0.0624651
0.0640306
0.00903571
0.0652445
0.0130759
0.0667315
0.0169197
0.0685295
0.0208523
0.0705563
0.0243824
0.0729315
0.0281037
0.0754728
0.0312015
0.0783719
0.0346027
0.0371668
0.0627994
0.00446132
-0.0622156
0.0636675
0.00816763
0.064835
0.0119085
0.0662749
0.0154798
0.0680291
0.0190981
0.0700207
0.0223908
0.0723423
0.0257821
0.0748621
0.0286817
0.0777005
0.0317643
0.0341576
0.0625358
0.00392884
-0.0620034
0.0633567
0.00734675
0.064482
0.0107831
0.0658841
0.0140777
0.0675979
0.0173843
0.0695611
0.0204276
0.0718362
0.023507
0.07433
0.0261878
0.0771188
0.0289755
0.0311802
0.0623104
0.00344174
-0.0618233
0.063091
0.00656617
0.0641786
0.00969556
0.0655488
0.0127075
0.0672266
0.0157065
0.0691641
0.01849
0.0714006
0.0212705
0.0738683
0.0237202
0.0766171
0.0262267
0.028235
0.0621184
0.00299438
-0.061671
0.0628643
0.00582018
0.0639187
0.00864126
0.0652613
0.0113648
0.0669079
0.0140599
0.0688219
0.016576
0.0710268
0.0190656
0.0734701
0.0212769
0.0761851
0.0235117
0.0253197
0.0619554
0.00258225
-0.0615433
0.0626719
0.00510371
0.0636974
0.00761576
0.065016
0.0100462
0.0666361
0.0124398
0.0685289
0.0146832
0.0707074
0.0168872
0.0731283
0.0188559
0.0758142
0.0208258
0.0224311
0.0618182
0.0021963
-0.0614322
0.0625092
0.00441276
0.0635102
0.00661471
0.0648082
0.00874822
0.0664062
0.0108418
0.0682802
0.0128091
0.0704363
0.0147311
0.0728374
0.0164549
0.0754978
0.0181654
0.0195668
0.0617041
0.00183624
-0.0613441
0.0623736
0.00374331
0.063354
0.00563426
0.0646344
0.00746791
0.0662139
0.00926229
0.0680718
0.0109512
0.070209
0.0125939
0.0725926
0.0140713
0.0752309
0.0155271
0.0167241
0.0616109
0.00149764
-0.0612723
0.0622622
0.00309205
0.0632257
0.00467076
0.0644913
0.00620234
0.0660557
0.0076978
0.0679001
0.00910688
0.0700217
0.0104723
0.0723904
0.0117026
0.0750096
0.0129079
0.013901
0.0615364
0.00117668
-0.0612154
0.0621727
0.00245571
0.0631226
0.00372093
0.0643763
0.00494865
0.0659288
0.0061453
0.0677622
0.00727346
0.0698711
0.00836336
0.0722273
0.00934639
0.0748304
0.0103048
0.0110953
0.0614789
0.000869693
-0.0611719
0.0621034
0.00183123
0.0630426
0.00278174
0.0642871
0.00370414
0.0658305
0.00460192
0.0676555
0.00544845
0.0697546
0.00626423
0.0721007
0.00700032
0.0746904
0.00771509
0.00830471
0.061437
0.000573374
-0.0611406
0.0620525
0.00121567
0.0629839
0.00185032
0.0642219
0.0024662
0.0657588
0.00306495
0.0675779
0.00362942
0.0696698
0.00417228
0.0720081
0.00466202
0.0745871
0.00513614
0.00552715
0.0614088
0.000285147
-0.0611205
0.0620183
0.000606113
0.0629447
0.000923935
0.0641786
0.00123226
0.0657118
0.00153177
0.0675273
0.00181396
0.0696146
0.00208498
0.0719474
0.00232917
0.0745183
0.00256527
0.00275996
0.0613942
-0.0611091
0.0620003
0.0629243
0.0641565
0.0656883
0.0675023
0.0695872
0.0719164
0.0744817
0.031852
0.0457439
-0.0422849
-0.035311
0.0280576
0.0464855
-0.0426912
0.0241947
0.0474858
-0.0436229
0.0202749
0.0487607
-0.0448409
0.0162879
0.0502943
-0.0463074
0.0122348
0.0521053
-0.0480521
0.00817117
0.0539716
-0.049908
0.00432935
0.0545405
-0.0506987
0.00128313
0.0493675
-0.0463213
0.0280682
-0.0267851
0.0287426
0.0493067
-0.0323054
0.025173
0.0500551
0.0215779
0.051081
0.0179445
0.0523941
0.014251
0.0539877
0.0105007
0.0558557
0.00677923
0.057693
0.00336654
0.0579532
0.000841972
0.051892
0.0289102
0.0254653
0.0525923
-0.0287509
0.022132
0.0533884
0.0187775
0.0544355
0.0154049
0.0557667
0.0119978
0.0573948
0.00856627
0.0592873
0.00522342
0.0610359
0.00229925
0.0608774
0.000352894
0.0538384
0.0292631
0.0218185
0.0555838
-0.02481
0.0187755
0.0564315
0.0157064
0.0575046
0.0126254
0.0588477
0.00952976
0.0604904
0.00644677
0.0623702
0.00351749
0.0639652
0.00112439
0.0632705
-0.0001602
0.055123
0.0291029
0.0178061
0.0582699
-0.0204921
0.0150815
0.0591561
0.0123378
0.0602482
0.00958731
0.0615982
0.00683835
0.0632393
0.00414424
0.0650644
0.00168718
0.0664222
-0.000178801
0.0651365
-0.000649322
0.0555935
0.0284536
0.0134552
0.0606181
-0.0158033
0.0110803
0.061531
0.00869176
0.0626367
0.00630339
0.0639866
0.00393604
0.0656067
0.00167273
0.0673277
-0.000255369
0.0683503
-0.0013294
0.0662105
-0.0011311
0.0553952
0.0273225
0.0088127
0.0625894
-0.0107841
0.00681413
0.0635296
0.00480306
0.0646478
0.00280434
0.0659853
0.000853691
0.0675573
-0.000928688
0.0691101
-0.00223356
0.0696552
-0.00258576
0.0665627
-0.00159606
0.0544055
0.0257264
0.0039227
0.0641719
-0.0055052
0.00231023
0.065142
0.000704975
0.066253
-0.000888505
0.0675788
-0.00240161
0.0690704
-0.00365414
0.0703626
-0.00430082
0.0703019
-0.00383726
0.0660991
-0.0020236
0.0525918
0.0237028
-0.00117431
0.0654422
-9.59169e-05
-0.00239005
0.0663578
-0.00359598
0.0674589
-0.00476132
0.0687441
-0.00578983
0.070099
-0.00646149
0.0710342
-0.00637153
0.0702119
-0.00502704
0.0647546
-0.00238464
0.0499495
0.0213182
-0.00646097
0.00572584
-0.00724994
-0.00803325
-0.00874895
-0.00925909
-0.00928364
-0.00837653
-0.0060992
-0.00265195
0.0422818
0.00409575
-0.0463776
0.0380415
0.00424032
0.0336374
0.00440411
0.0290518
0.00458559
0.0242599
0.00479195
0.0192288
0.00503101
0.0139308
0.00529807
0.00842935
0.00550142
0.00321112
0.00521823
0.00321112
0.0421949
0.00820547
-0.0463047
0.0379447
0.00849057
0.0335354
0.00881343
0.0289493
0.00917168
0.0241615
0.00957975
0.0191392
0.0100533
0.0138536
0.0105837
0.00836982
0.0109852
0.00318742
0.0104006
0.00639854
0.0420054
0.0123403
-0.0461402
0.0377377
0.0127583
0.0333197
0.0132314
0.0287336
0.0137578
0.0239543
0.014359
0.0189495
0.0150581
0.0136923
0.0158408
0.00825263
0.016425
0.00312851
0.0155247
0.00952705
0.0416829
0.0165023
-0.0458449
0.037397
0.0170441
0.0329719
0.0176565
0.0283905
0.0183392
0.0236281
0.0191214
0.0186531
0.0200332
0.0134413
0.0210526
0.00806943
0.0217969
0.00303903
0.0205551
0.0125661
0.0411878
0.0206847
-0.0453702
0.0368898
0.0213421
0.0324651
0.0220812
0.0278986
0.0229057
0.023166
0.0238539
0.0182368
0.0249624
0.0130909
0.0261985
0.00781469
0.027073
0.00291541
0.0254544
0.0154815
0.0404889
0.0248738
-0.0446781
0.0361871
0.025644
0.0317719
0.0264964
0.027233
0.0274446
0.022547
0.02854
0.0176837
0.0298256
0.0126284
0.0312539
0.00748041
0.032221
0.00275404
0.0301808
0.0182355
0.0395306
0.0290686
-0.0437255
0.0352353
0.0299394
0.0308477
0.0308839
0.0263593
0.031933
0.0217438
0.0331556
0.0169724
0.034597
0.0120381
0.0361882
0.00705687
0.0372022
0.00255109
0.0346866
0.0207866
0.038353
0.0332569
-0.0425413
0.0340535
0.0342389
0.0297056
0.0352318
0.0252864
0.0363521
0.0207595
0.0376825
0.0161006
0.0392558
0.0113151
0.0409738
0.0065397
0.0419776
0.00230557
0.0389207
0.0230922
0.0366212
0.0375496
-0.0409139
0.0323568
0.0385033
0.0281398
0.0394488
0.0238674
0.0406246
0.0194961
0.0420538
0.0150106
0.0437414
0.0104285
0.0455559
0.00591449
0.0464916
0.00201703
0.0428182
0.0251092
0.0348809
-0.0396161
0.030693
0.0265189
0.0223026
0.018049
0.0137382
0.0093861
0.00517898
0.00167588
0.0509445
-0.000222041
0.0511663
-0.00022181
0.0513798
-0.000213539
0.0515795
-0.000199692
0.05176
-0.000180439
0.0519158
-0.000155842
0.0520413
-0.000125536
0.0521302
-8.89044e-05
0.0521756
-4.53534e-05
0.0521697
5.87656e-06
0.0520998
6.99589e-05
0.0519575
0.000142314
0.0517322
0.000225212
0.0514114
0.000320815
0.0509792
0.000432233
0.0504173
0.000561876
0.0497049
0.000712447
0.048816
0.000888882
0.0477257
0.00109033
0.00134806
0.0511739
-0.000434058
0.051384
-0.000431952
0.0515844
-0.00041393
0.0517703
-0.000385603
0.0519368
-0.00034691
0.0520785
-0.000297588
0.0521898
-0.00023682
0.0522644
-0.000163459
0.0522955
-7.64869e-05
0.0522738
2.75497e-05
0.0521884
0.000155374
0.0520302
0.000300529
0.0517883
0.000467168
0.0514503
0.00065873
0.0510011
0.000881515
0.0504219
0.00114106
0.0496918
0.00144251
0.0487845
0.00179618
0.0476754
0.00219942
0.00271881
0.051626
-0.000618569
0.0518084
-0.000614406
0.051981
-0.00058654
0.0521388
-0.000543391
0.0522768
-0.000484881
0.0523897
-0.000410527
0.052472
-0.00031906
0.0525174
-0.000208915
0.0525195
-7.85488e-05
0.0524657
8.13131e-05
0.0523485
0.000272542
0.0521581
0.000490985
0.0518829
0.000742372
0.0515099
0.00103168
0.0510256
0.00136584
0.0504112
0.00175547
0.0496455
0.00220818
0.0487012
0.00274051
0.0475551
0.00334549
0.00413375
0.052281
-0.000760401
0.0524198
-0.000753176
0.0525484
-0.000715155
0.0526619
-0.000656908
0.0527553
-0.000578211
0.0528231
-0.000478336
0.0528596
-0.000355629
0.0528593
-0.000208571
0.0528173
-3.656e-05
0.0527136
0.000184966
0.0525472
0.000438975
0.0523073
0.000730922
0.0519819
0.00106772
0.0515571
0.00145647
0.0510182
0.00190475
0.0503488
0.00242487
0.0495281
0.00302887
0.0485271
0.00374154
0.0473253
0.00454732
0.00561416
0.0531129
-0.000842096
0.0531902
-0.000830447
0.0532569
-0.000781907
0.0533083
-0.000708302
0.0533393
-0.000609222
0.0533447
-0.000483732
0.0533195
-0.000330389
0.0532575
-0.000146633
0.0531442
7.68081e-05
0.0529731
0.000356056
0.052739
0.000673075
0.052431
0.00103891
0.0520372
0.00146149
0.0515437
0.00195001
0.0509343
0.00251412
0.0501901
0.00316905
0.049294
0.00392503
0.0482155
0.00482002
0.0469379
0.0058249
0.00718185
0.0540898
-0.000844031
0.0540856
-0.000826276
0.0540707
-0.00076703
0.0540403
-0.000677846
0.053989
-0.000557926
0.0539113
-0.000406089
0.0538016
-0.000220634
0.0536644
-9.42686e-06
0.0534553
0.000285835
0.0531972
0.000614198
0.0528756
0.000994629
0.0524794
0.00143519
0.0519968
0.00194411
0.0514138
0.00253295
0.0507154
0.00321251
0.0498813
0.00400315
0.0488938
0.00491259
0.0477188
0.00599496
0.0463491
0.00719465
0.00885286
0.0551776
-0.000744186
0.0550699
-0.000718549
0.0549517
-0.000648869
0.0548183
-0.0005444
0.0546637
-0.00040337
0.0544841
-0.000226532
0.054286
-2.24955e-05
0.05401
0.000266545
0.0537003
0.000595549
0.0533356
0.000978889
0.052906
0.00142427
0.0524008
0.0019404
0.0518084
0.00253644
0.0511148
0.00322656
0.0503061
0.00402121
0.0493608
0.00494846
0.0482651
0.00600832
0.0469759
0.00728414
0.0455049
0.00866562
0.0106323
0.0563406
-0.000520314
0.0561081
-0.000486015
0.055865
-0.000405767
0.0556061
-0.000285574
0.055332
-0.000129265
0.0550341
7.1432e-05
0.0546706
0.000340975
0.0542797
0.000657411
0.0538426
0.00103263
0.0533489
0.00147264
0.052789
0.00198417
0.0521523
0.00257714
0.0514277
0.00326096
0.0506015
0.00405283
0.0496623
0.00496038
0.0485885
0.00602231
0.0473761
0.00722067
0.0459752
0.00868501
0.0444219
0.0102189
0.012513
0.0575481
-0.000144924
0.0571635
-0.000101373
0.056782
-2.42231e-05
0.0563798
0.000116624
0.0559457
0.000304751
0.0554741
0.000543079
0.0549768
0.000838304
0.0544387
0.00119543
0.0538515
0.0016199
0.053206
0.00211807
0.052493
0.00269717
0.0517018
0.00336838
0.0508219
0.00414084
0.0498392
0.00503556
0.0487441
0.00605541
0.0475119
0.00725456
0.0461479
0.00858468
0.0445861
0.0102468
0.0429255
0.0118795
0.0145245
0.0588177
0.000415917
0.058255
0.000461355
0.0576735
0.000557195
0.0570825
0.000707691
0.0564736
0.000913593
0.0558389
0.00117776
0.0551712
0.00150604
0.0544625
0.00190413
0.0537051
0.00237733
0.0528905
0.00293268
0.0520098
0.0035778
0.0510535
0.00432469
0.0500132
0.00518115
0.0488784
0.00617041
0.0476477
0.00728606
0.0463049
0.00859736
0.0448851
0.0100045
0.0433026
0.0118293
0.0417633