/*--------------------------------*- C++ -*----------------------------------*\
| =========                 |                                                 |
| \\      /  F ield         | OpenFOAM: The Open Source CFD Toolbox           |
|  \\    /   O peration     | Version:  4.1                                   |
|   \\  /    A nd           | Web:      www.OpenFOAM.org                      |
|    \\/     M anipulation  |                                                 |
\*---------------------------------------------------------------------------*/
FoamFile
{
    version     2.0;
    format      ascii;
    class       volScalarField;
    location    "12.3";
    object      p;
}
// * * * * * * * * * * * * * * * * * * * * * * * * * * * * * * * * * * * * * //

dimensions      [0 2 -2 0 0 0 0];

internalField   nonuniform List<scalar> 
2000
(
0.0519374
0.0606132
0.0689767
0.0770941
0.0845217
0.0911321
0.0971515
0.101761
0.106679
0.105429
0.0358378
0.0478643
0.0584118
0.0683545
0.077542
0.0858949
0.0934651
0.0999958
0.106135
0.10895
0.0161807
0.0321011
0.0450471
0.0571472
0.0687391
0.0796689
0.0898202
0.0990507
0.107556
0.114633
-0.00733272
0.0132233
0.0288793
0.0438642
0.0589843
0.0736414
0.0873495
0.099851
0.111402
0.121016
-0.0334044
-0.00822712
0.0106389
0.0298048
0.0499221
0.0694524
0.0874311
0.103612
0.118033
0.130302
-0.0608274
-0.0310348
-0.00788897
0.0172216
0.043746
0.0689346
0.0915335
0.111391
0.128697
0.143546
-0.0869832
-0.0530476
-0.0238726
0.00897002
0.0427883
0.0738584
0.100989
0.124341
0.144374
0.161755
-0.108432
-0.0711131
-0.0339566
0.0078828
0.049138
0.0857556
0.117003
0.14348
0.16607
0.185843
-0.121471
-0.0813433
-0.034907
0.0162947
0.064449
0.105886
0.140601
0.169703
0.19451
0.216228
-0.122722
-0.0799817
-0.0239283
0.035919
0.089892
0.135172
0.172564
0.203679
0.230205
0.253184
0.11119
0.107562
0.105791
0.104276
0.102657
0.10093
0.0990855
0.0970985
0.0948907
0.0922779
0.109751
0.106405
0.104809
0.103429
0.101954
0.100394
0.098747
0.0970155
0.0951536
0.0927757
0.107049
0.104264
0.103
0.101918
0.100764
0.0995656
0.0983367
0.0971057
0.0959185
0.0942091
0.103407
0.101376
0.100623
0.100035
0.0994095
0.0987953
0.0982224
0.0977123
0.0974623
0.0974746
0.0991198
0.0979588
0.0979081
0.098028
0.0981455
0.0983198
0.0986148
0.0990787
0.100058
0.101492
0.0943292
0.0941119
0.0949682
0.0960026
0.0970451
0.0981476
0.0994172
0.100946
0.103276
0.107266
0.088945
0.0897588
0.0917577
0.0938814
0.0959898
0.0980887
0.100347
0.102873
0.106008
0.113917
0.0826188
0.0847417
0.0879556
0.0913962
0.0947041
0.09785
0.101073
0.104578
0.107781
0.119314
0.0747376
0.0785787
0.0832427
0.0881321
0.0927304
0.0969547
0.101094
0.10538
0.108842
0.120866
0.0647383
0.070697
0.0770923
0.0835421
0.0894967
0.0948298
0.0998278
0.104203
0.108458
0.115199
0.0891659
0.0858713
0.0822784
0.0783681
0.0741643
0.0696917
0.0649813
0.0600718
0.0550079
0.0498384
0.0446143
0.0393857
0.0341984
0.0290936
0.0241077
0.0192625
0.014525
0.00980128
0.00518714
0.00139746
0.0892844
0.0860618
0.0825499
0.0786668
0.0744654
0.0699782
0.0652372
0.0602831
0.0551635
0.0499305
0.0446391
0.0393439
0.034096
0.028941
0.0239196
0.0190611
0.0143384
0.00963324
0.00498963
0.00123223
0.0898713
0.0868077
0.0834537
0.0796113
0.0754053
0.0708825
0.0660751
0.0610268
0.0557896
0.0504208
0.0449821
0.0395363
0.0341438
0.0288597
0.0237341
0.0188085
0.0140732
0.00939348
0.00472388
0.000982202
0.0908209
0.0885303
0.0853992
0.0815812
0.07737
0.072802
0.0679062
0.0627284
0.0573244
0.0517568
0.0460944
0.0404087
0.0347716
0.0292515
0.023911
0.0188067
0.0139618
0.00927431
0.00458519
0.000658799
0.0940023
0.0910555
0.0884024
0.0848029
0.0805904
0.0759754
0.0709988
0.0656899
0.0601022
0.0543041
0.0483705
0.0423806
0.0364159
0.0305578
0.0248825
0.0194592
0.0143474
0.00954492
0.00484564
9.98114e-05
0.0974967
0.0940661
0.0920928
0.0889245
0.0847735
0.0801479
0.0751545
0.06978
0.0640586
0.0580645
0.0518793
0.0455861
0.0392715
0.0330252
0.0269353
0.0210822
0.0155367
0.0103289
0.00536316
0.000738511
0.101068
0.0967211
0.0956953
0.0933273
0.0893604
0.0847873
0.0798778
0.074544
0.0687783
0.0626656
0.0562986
0.0497607
0.0431391
0.0365269
0.0300185
0.0236998
0.0176515
0.0119226
0.00656967
0.00139669
0.10404
0.0985234
0.098661
0.0972812
0.0936045
0.0892176
0.0845358
0.0793606
0.073653
0.0675232
0.0610737
0.0543822
0.0475326
0.0406185
0.0337385
0.0269758
0.0204235
0.0140947
0.00815746
0.0021938
0.105961
0.100269
0.101648
0.10076
0.097389
0.0934218
0.0890666
0.0840281
0.0783466
0.0721939
0.0656772
0.058864
0.0518332
0.0446721
0.0374802
0.0303222
0.0233042
0.0163807
0.00974963
0.00295051
0.10266
0.101993
0.103997
0.10246
0.0997483
0.096855
0.0932122
0.0885742
0.0831346
0.0771013
0.0705869
0.0636703
0.0564454
0.0490021
0.0414506
0.0338433
0.0263002
0.0187446
0.0113489
0.00368787
0.112672
0.113796
0.110002
0.105984
0.102715
0.0994145
0.0954174
0.0905952
0.0850779
0.0790037
0.072464
0.0655279
0.0582774
0.0507843
0.0431491
0.0354052
0.0276631
0.0198364
0.0120652
0.00400953
0.111291
0.112613
0.109955
0.106368
0.102985
0.0994657
0.0953482
0.090499
0.0849965
0.0789599
0.0724802
0.0656232
0.0584572
0.0510405
0.0434549
0.0357275
0.0279443
0.0200406
0.0121225
0.00398124
0.114464
0.1139
0.111693
0.108373
0.104607
0.100533
0.0960005
0.0909059
0.0852604
0.0791402
0.0726178
0.0657555
0.0586036
0.0512153
0.0436419
0.0359233
0.0280999
0.0201731
0.0121705
0.00406805
0.119968
0.117078
0.114413
0.11099
0.106816
0.10217
0.0971507
0.0917301
0.0858774
0.0796222
0.0730059
0.0660885
0.0589002
0.0515001
0.0439019
0.0361751
0.0282986
0.0203626
0.0122769
0.00421091
0.126424
0.121713
0.118009
0.114035
0.10937
0.104187
0.098674
0.0928783
0.086762
0.0803236
0.0735695
0.0665557
0.0592904
0.0518444
0.0441938
0.0364412
0.0285036
0.0205516
0.0123826
0.00432699
0.133601
0.127376
0.122355
0.117516
0.11225
0.106539
0.100536
0.0943294
0.0878962
0.0812245
0.07429
0.0671416
0.059765
0.0522416
0.0445159
0.0367165
0.0287113
0.0207259
0.0124813
0.00440722
0.141123
0.133514
0.12717
0.121352
0.115404
0.10915
0.102659
0.0960236
0.0892379
0.0822934
0.075144
0.0678301
0.0603161
0.0526889
0.04487
0.0370028
0.0289243
0.0208875
0.0125752
0.00445715
0.148545
0.139753
0.13223
0.125444
0.118771
0.11195
0.104967
0.0978982
0.0907418
0.0834982
0.0761082
0.0686043
0.0609326
0.0531805
0.0452535
0.0373009
0.0291428
0.0210403
0.0126642
0.00448661
0.155673
0.145933
0.137397
0.129695
0.122286
0.114878
0.107402
0.0999009
0.0923685
0.0848109
0.0771625
0.0694501
0.0616052
0.0537118
0.0456647
0.0376129
0.0293687
0.0211907
0.0127508
0.00450756
0.162474
0.151973
0.142556
0.134
0.125865
0.11787
0.109905
0.101981
0.094077
0.086201
0.0782847
0.0703519
0.062323
0.0542774
0.0461012
0.0379409
0.0296044
0.0213451
0.0128387
0.00452877
0.168893
0.157782
0.147594
0.138249
0.129418
0.120854
0.112417
0.104086
0.0958222
0.0876325
0.0794472
0.0712893
0.0630711
0.0548673
0.0465568
0.0382826
0.0298495
0.0215055
0.0129298
0.00455334
0.174831
0.16326
0.152407
0.142339
0.132858
0.123756
0.114874
0.10616
0.0975558
0.0890646
0.0806172
0.0722363
0.0638296
0.0554662
0.0470206
0.0386302
0.0300993
0.0216686
0.0130228
0.00457868
0.180205
0.168312
0.156898
0.146181
0.136103
0.126506
0.117215
0.108148
0.0992281
0.090454
0.0817584
0.0731626
0.0645739
0.0560541
0.047477
0.0389708
0.0303448
0.0218262
0.0131128
0.00459775
0.184979
0.172856
0.160977
0.149696
0.139088
0.129045
0.119385
0.109998
0.100792
0.0917592
0.0828348
0.0740376
0.0652786
0.0566091
0.0479089
0.0392896
0.0305756
0.021968
0.013194
0.00460216
0.189149
0.17683
0.164572
0.152821
0.141759
0.131325
0.121338
0.111668
0.102209
0.0929443
0.0838154
0.0748344
0.0659212
0.0571123
0.048301
0.0395739
0.0307822
0.0220861
0.0132615
0.00458673
0.192703
0.180188
0.16763
0.155512
0.144078
0.133312
0.123042
0.113124
0.103447
0.0939814
0.0846758
0.0755325
0.0664847
0.05755
0.0486425
0.039816
0.0309589
0.0221779
0.0133134
0.00455296
0.195612
0.182895
0.17011
0.157728
0.146016
0.134977
0.124466
0.114338
0.104481
0.0948486
0.0853969
0.0761164
0.0669565
0.0579136
0.0489266
0.040013
0.0311035
0.0222456
0.0133513
0.00450917
0.197845
0.184935
0.171981
0.159416
0.147503
0.136264
0.125572
0.115283
0.105286
0.0955244
0.0859601
0.076572
0.0673251
0.058196
0.0491476
0.0401637
0.0312146
0.0222934
0.0133777
0.00446623
0.199438
0.186357
0.173263
0.160561
0.148511
0.137139
0.126327
0.115929
0.105838
0.0959876
0.0863467
0.0768844
0.0675781
0.058389
0.0492989
0.0402657
0.03129
0.0223239
0.013394
0.00443247
0.200481
0.187264
0.174015
0.16119
0.14905
0.137603
0.126726
0.116269
0.106127
0.09623
0.0865487
0.0770475
0.0677099
0.0584895
0.0493775
0.040319
0.0313291
0.0223402
0.013402
0.00441563
0.271404
0.234368
0.203147
0.177584
0.157526
0.142193
0.130922
0.122086
0.116244
0.104189
0.286392
0.250243
0.219381
0.19333
0.172163
0.154558
0.141124
0.127897
0.120423
0.10631
0.300023
0.265047
0.234938
0.208696
0.186873
0.167156
0.152055
0.13584
0.127904
0.114312
0.312295
0.278392
0.24896
0.222516
0.200338
0.179346
0.163673
0.146721
0.138009
0.12395
0.323244
0.290241
0.261377
0.234842
0.212599
0.19117
0.175258
0.158
0.14747
0.132609
0.333003
0.300802
0.272483
0.246065
0.223904
0.202359
0.185881
0.168081
0.155972
0.140878
0.341703
0.310263
0.282485
0.256323
0.234221
0.21259
0.195463
0.17736
0.164511
0.1494
0.349449
0.318733
0.291463
0.265611
0.243534
0.221909
0.204418
0.186356
0.173123
0.157862
0.356308
0.326269
0.299466
0.273954
0.251948
0.230475
0.21286
0.194907
0.181271
0.165878
0.362341
0.332926
0.306555
0.281411
0.259542
0.238298
0.220616
0.202735
0.188714
0.173367
0.367623
0.338789
0.312808
0.288043
0.266335
0.245329
0.227578
0.209799
0.195494
0.180307
0.372184
0.343924
0.318292
0.293896
0.272348
0.251583
0.233786
0.21616
0.201656
0.186611
0.376079
0.348337
0.323047
0.299018
0.277633
0.257113
0.23931
0.221843
0.20719
0.192214
0.379344
0.352083
0.327134
0.303466
0.282255
0.261973
0.244196
0.226859
0.212096
0.197139
0.382068
0.355254
0.330628
0.307302
0.286264
0.266205
0.248464
0.231245
0.216391
0.201465
0.384312
0.357909
0.333572
0.310562
0.289682
0.269838
0.252125
0.235038
0.220082
0.205234
0.386102
0.360067
0.335977
0.313261
0.292511
0.272884
0.255175
0.238245
0.223154
0.208415
0.387419
0.361717
0.337839
0.315393
0.29475
0.275337
0.257617
0.240848
0.2256
0.210941
0.388191
0.362787
0.339101
0.316906
0.296372
0.277161
0.259445
0.242821
0.227445
0.212812
0.388376
0.363169
0.339624
0.317618
0.297191
0.278142
0.260468
0.243962
0.228546
0.213955
0.830118
0.831609
0.825882
0.814307
0.797949
0.776341
0.747078
0.706982
0.65777
0.630857
0.781392
0.77901
0.765615
0.747669
0.72613
0.698927
0.662822
0.614491
0.555746
0.521866
0.726875
0.719229
0.699947
0.677065
0.650778
0.618026
0.57523
0.519115
0.451476
0.411174
0.663897
0.652172
0.629461
0.603227
0.572968
0.535219
0.486412
0.42354
0.348132
0.302623
0.597225
0.582185
0.557082
0.52826
0.494632
0.452587
0.398724
0.33062
0.249109
0.200357
0.530683
0.512558
0.485553
0.454643
0.418228
0.372668
0.314718
0.242933
0.158204
0.108586
0.46623
0.445345
0.417005
0.384615
0.346133
0.298044
0.23721
0.162598
0.0804833
0.0299827
0.405158
0.382117
0.353185
0.320078
0.2804
0.23101
0.169033
0.0945714
0.0165694
-0.033347
0.348648
0.324308
0.295713
0.26266
0.222716
0.173295
0.112252
0.0404451
-0.0319868
-0.0799673
0.297132
0.273485
0.245737
0.213286
0.174115
0.126125
0.0677919
0.000910583
-0.0640902
-0.109496
1.09264
1.10224
1.11313
1.12531
1.13879
1.1534
1.16867
1.18326
1.19633
1.21403
1.08997
1.09897
1.1094
1.12108
1.13391
1.14772
1.16203
1.17545
1.18717
1.20412
1.08433
1.09212
1.10166
1.11233
1.12388
1.13612
1.14849
1.15956
1.16874
1.18399
1.07515
1.08113
1.08934
1.09855
1.10823
1.11815
1.12766
1.13527
1.14066
1.15332
1.06169
1.06524
1.07174
1.07906
1.08632
1.09322
1.09902
1.1021
1.10251
1.11167
1.0431
1.04361
1.04804
1.0531
1.05745
1.06071
1.062
1.05959
1.05388
1.05866
1.01855
1.01548
1.01761
1.02014
1.02113
1.02014
1.01621
1.00741
0.994506
0.994059
0.9867
0.979588
0.979551
0.979509
0.976826
0.971137
0.961412
0.945484
0.924443
0.918023
0.94694
0.936122
0.934495
0.931584
0.924654
0.913774
0.897772
0.874123
0.844159
0.831186
0.894251
0.884349
0.882638
0.876485
0.864901
0.84858
0.82598
0.794178
0.754704
0.73482
1.00106
1.00346
1.00643
1.00958
1.01271
1.01586
1.0191
1.02246
1.02598
1.02967
1.03355
1.03765
1.04202
1.04669
1.05171
1.05715
1.06305
1.06948
1.0765
1.0842
1.00106
1.00348
1.00643
1.00954
1.01264
1.01576
1.01897
1.02229
1.02576
1.0294
1.03322
1.03725
1.04152
1.04609
1.051
1.05628
1.062
1.0682
1.07493
1.08229
1.00109
1.00351
1.0064
1.00944
1.01247
1.01553
1.01866
1.0219
1.02528
1.02881
1.03249
1.03637
1.04046
1.04481
1.04946
1.05442
1.05974
1.06546
1.07157
1.07818
1.00112
1.00353
1.00632
1.00924
1.01217
1.01512
1.01814
1.02126
1.02448
1.02781
1.03126
1.03488
1.03868
1.04266
1.04687
1.0513
1.05596
1.06088
1.06597
1.07134
1.00114
1.00352
1.00616
1.00892
1.01169
1.01447
1.0173
1.02019
1.02321
1.02626
1.02939
1.03262
1.03596
1.0394
1.04295
1.04658
1.05026
1.05398
1.05755
1.06106
1.00114
1.00346
1.0059
1.00843
1.01098
1.01355
1.01615
1.0188
1.02139
1.02402
1.02669
1.02939
1.03209
1.03477
1.03738
1.03988
1.04218
1.04421
1.04564
1.04651
1.0011
1.0033
1.0055
1.00772
1.00996
1.01222
1.01451
1.01671
1.01885
1.02097
1.02304
1.02502
1.02686
1.02849
1.02985
1.03081
1.03123
1.03094
1.02952
1.02688
1.00099
1.00298
1.00488
1.00679
1.0087
1.01056
1.0123
1.01397
1.01556
1.01703
1.01832
1.01936
1.0201
1.02039
1.02015
1.01913
1.01716
1.01384
1.00873
1.00126
1.00082
1.00251
1.00408
1.00553
1.00693
1.00826
1.00949
1.01058
1.01148
1.01213
1.01245
1.01231
1.01164
1.01021
1.00795
1.00443
0.999634
0.992558
0.983287
0.969241
1.00062
1.0018
1.0029
1.00389
1.00476
1.00551
1.00611
1.00647
1.00654
1.00619
1.00535
1.00383
1.00153
0.998036
0.993301
0.986329
0.977516
0.964334
0.948936
0.924858
1.00029
1.00103
1.00175
1.00222
1.00244
1.00248
1.00231
1.00185
1.00098
0.999528
0.997392
0.994294
0.99014
0.98432
0.97685
0.966337
0.953305
0.933838
0.909845
0.86831
0.999982
1.00025
1.00049
1.00036
0.999886
0.999187
0.99829
0.997028
0.995248
0.992731
0.989407
0.984927
0.97925
0.97163
0.96223
0.949408
0.934016
0.912231
0.887328
0.85192
1.00026
0.999976
0.999469
0.99846
0.997073
0.995589
0.993986
0.99195
0.989275
0.985725
0.98128
0.975546
0.968543
0.959435
0.94854
0.934148
0.917493
0.895063
0.870733
0.837476
0.999601
0.999956
0.999307
0.996907
0.994157
0.991793
0.989527
0.986733
0.983149
0.978564
0.973034
0.966123
0.957911
0.947499
0.935365
0.919774
0.902273
0.879377
0.855288
0.822846
0.998853
0.999811
0.998582
0.994492
0.9905
0.98753
0.984789
0.981306
0.976838
0.971259
0.964715
0.956729
0.947437
0.935899
0.922741
0.906213
0.888074
0.864846
0.840928
0.809432
1.00016
1.00073
0.996732
0.990739
0.986172
0.98308
0.979994
0.975792
0.970426
0.963904
0.956432
0.947478
0.937226
0.924722
0.91071
0.893463
0.874845
0.851507
0.827813
0.797388
0.994953
0.992618
0.989382
0.984529
0.981291
0.978913
0.975512
0.970399
0.96406
0.95665
0.94834
0.938517
0.927395
0.914059
0.899321
0.881542
0.862568
0.839313
0.815846
0.786486
0.999392
0.985115
0.972342
0.971027
0.973988
0.974488
0.971049
0.964916
0.957634
0.949479
0.94047
0.929898
0.918007
0.903969
0.88862
0.87047
0.851234
0.828193
0.804916
0.776588
0.995357
0.97105
0.956137
0.960459
0.969041
0.971563
0.967563
0.960187
0.951889
0.942968
0.933245
0.921943
0.909316
0.894663
0.878776
0.860364
0.840915
0.818154
0.795025
0.767665
0.994863
0.967063
0.951382
0.957825
0.967848
0.970006
0.964756
0.956201
0.946993
0.937299
0.926803
0.914764
0.901438
0.886251
0.869899
0.851302
0.83168
0.809214
0.786207
0.759706
0.998482
0.97942
0.967879
0.970328
0.973465
0.970564
0.962842
0.95322
0.943252
0.932721
0.921332
0.908502
0.894504
0.878847
0.862101
0.843359
0.8236
0.801388
0.778503
0.752695
0.992996
0.99787
1.00448
0.999283
0.987369
0.974485
0.962764
0.95189
0.941109
0.929569
0.917109
0.903388
0.888712
0.8726
0.855507
0.836606
0.816741
0.794684
0.771938
0.746602
1.00237
1.02304
1.03361
1.02025
0.997331
0.977146
0.962405
0.950661
0.939314
0.92694
0.913547
0.89904
0.883801
0.867307
0.849954
0.830895
0.81098
0.788978
0.766417
0.741326
1.00779
1.03647
1.04823
1.03063
1.00201
0.977781
0.961408
0.949284
0.937612
0.924606
0.910475
0.895332
0.879649
0.862834
0.845284
0.826068
0.806139
0.784131
0.76178
0.736804
1.00947
1.04316
1.05657
1.03549
1.00259
0.975995
0.959149
0.947169
0.935471
0.922106
0.907498
0.891927
0.875926
0.858866
0.841154
0.821827
0.801893
0.779923
0.757755
0.732973
1.00513
1.04357
1.06433
1.04134
1.00321
0.973744
0.956038
0.943987
0.932331
0.918964
0.904247
0.888545
0.872367
0.855157
0.837304
0.817956
0.798007
0.776204
0.754145
0.729758
0.978571
0.988721
1.0157
1.0151
0.996563
0.974993
0.957089
0.942536
0.929348
0.915798
0.901297
0.885682
0.869366
0.852017
0.833987
0.814658
0.794662
0.773106
0.751077
0.727168
1.00117
0.949444
0.909459
0.92405
0.951957
0.962598
0.954822
0.939561
0.924446
0.910762
0.897332
0.882673
0.866672
0.849372
0.831233
0.811977
0.791964
0.770673
0.748673
0.725163
1.00545
0.950957
0.900429
0.909451
0.939887
0.954616
0.950093
0.936891
0.922573
0.908961
0.895364
0.880717
0.864785
0.847581
0.829407
0.810202
0.790164
0.769056
0.747091
0.723869
0.974998
0.989153
1.02005
1.00985
0.980328
0.957963
0.945392
0.935295
0.923539
0.909923
0.895301
0.87999
0.863879
0.846725
0.828553
0.809372
0.78929
0.768265
0.746319
0.723304
0.824099
0.772053
0.718584
0.660055
0.597578
0.53515
0.474845
0.417358
0.363567
0.314405
0.817784
0.763971
0.707721
0.651893
0.593333
0.534247
0.477418
0.423479
0.373211
0.32746
0.806252
0.754626
0.697639
0.644023
0.589845
0.534448
0.480747
0.429948
0.38275
0.33932
0.794016
0.746022
0.689732
0.637219
0.586509
0.534735
0.48394
0.435801
0.391168
0.349855
0.782211
0.737539
0.6829
0.631274
0.583238
0.534932
0.487016
0.441203
0.398745
0.359264
0.771088
0.729254
0.676896
0.626386
0.580371
0.535101
0.489957
0.446257
0.405634
0.367698
0.760686
0.721251
0.671475
0.62241
0.578008
0.535252
0.492676
0.450947
0.411896
0.375261
0.751019
0.713623
0.66655
0.619234
0.576233
0.535481
0.495154
0.455246
0.417573
0.382041
0.742136
0.706472
0.662094
0.616737
0.575031
0.535833
0.497369
0.459105
0.422663
0.388087
0.734113
0.699913
0.658103
0.61479
0.574309
0.536296
0.499301
0.462469
0.427147
0.393434
0.727058
0.694094
0.654587
0.613245
0.573911
0.536805
0.500921
0.465295
0.430977
0.398107
0.721064
0.689148
0.651547
0.611935
0.573637
0.53725
0.502209
0.467583
0.434111
0.401892
0.716084
0.685063
0.648915
0.610683
0.573286
0.537517
0.503151
0.469372
0.436713
0.405245
0.71198
0.681684
0.646569
0.609369
0.572739
0.537543
0.503768
0.470729
0.438819
0.408035
0.708471
0.678682
0.644324
0.607942
0.571991
0.53735
0.504116
0.471728
0.440478
0.410313
0.705283
0.675771
0.642073
0.606461
0.57116
0.537046
0.504289
0.472455
0.441762
0.412148
0.70242
0.672994
0.639914
0.605068
0.570384
0.536728
0.504354
0.472962
0.442721
0.413579
0.700059
0.670593
0.637998
0.603806
0.569636
0.53634
0.504249
0.473203
0.443329
0.414591
0.698517
0.668938
0.636587
0.602764
0.56888
0.535779
0.50386
0.473066
0.443487
0.415097
0.697881
0.668256
0.635974
0.602227
0.568357
0.535246
0.503339
0.472645
0.443217
0.415049
)
;

boundaryField
{
    bottom
    {
        type            symmetryPlane;
    }
    right
    {
        type            fixedValue;
        value           uniform 0;
    }
    top
    {
        type            symmetryPlane;
    }
    left
    {
        type            fixedValue;
        value           uniform 1;
    }
    cylinder
    {
        type            zeroGradient;
    }
    defaultFaces
    {
        type            empty;
    }
}


// ************************************************************************* //
