/*--------------------------------*- C++ -*----------------------------------*\
| =========                 |                                                 |
| \\      /  F ield         | OpenFOAM: The Open Source CFD Toolbox           |
|  \\    /   O peration     | Version:  4.1                                   |
|   \\  /    A nd           | Web:      www.OpenFOAM.org                      |
|    \\/     M anipulation  |                                                 |
\*---------------------------------------------------------------------------*/
FoamFile
{
    version     2.0;
    format      ascii;
    class       surfaceScalarField;
    location    "12.3";
    object      phi;
}
// * * * * * * * * * * * * * * * * * * * * * * * * * * * * * * * * * * * * * //

dimensions      [0 3 -1 0 0 0 0];

internalField   nonuniform List<scalar> 
3890
(
0.000296481
0.00149346
-0.00178994
0.00204148
-0.000296824
-0.00144817
0.00579186
-0.00515027
0.00139989
0.0118083
-0.0120419
0.00602548
0.0199555
-0.0199809
0.0118336
0.0297531
-0.0280334
0.0182359
0.0405466
-0.0354985
0.024705
0.0517893
-0.0419784
0.0307356
0.0629314
-0.0476071
0.036465
-0.0513537
0.0408311
0.0734539
0.000564336
0.000929125
0.00317782
-0.00291031
0.00837609
-0.0103485
0.0161206
-0.0197864
0.0257793
-0.0296395
0.0364305
-0.0386846
0.0472121
-0.0462801
0.0575345
-0.0523007
0.0668642
-0.0569368
-0.0601665
0.075677
0.000925158
3.96624e-06
0.00457869
-0.00656384
0.0112642
-0.0170341
0.0203471
-0.0288694
0.0306092
-0.0399016
0.0408779
-0.0489533
0.0503869
-0.0557892
0.058809
-0.0607228
0.0661694
-0.0642971
-0.066884
0.0728869
0.00136892
-0.00136496
0.00614751
-0.0113424
0.014066
-0.0249525
0.023706
-0.0385094
0.0334755
-0.0496711
0.0423427
-0.0578205
0.0499459
-0.0633924
0.0564073
-0.0671842
0.062052
-0.0699419
-0.0721252
0.0672932
0.00188657
-0.00325153
0.00770821
-0.0171641
0.0162919
-0.0335362
0.0255564
-0.0477739
0.0339835
-0.0580982
0.0410112
-0.0648482
0.046759
-0.0691401
0.0516359
-0.0720611
0.0560611
-0.0743671
-0.0764937
0.0604296
0.00243308
-0.00568461
0.00901686
-0.0237478
0.0175291
-0.0420484
0.0256694
-0.0559142
0.032379
-0.0648078
0.0376261
-0.0700953
0.0418434
-0.0733574
0.0455181
-0.0757358
0.0490173
-0.0778663
-0.0800086
0.0525322
0.00294336
-0.00862797
0.00983746
-0.030642
0.0176074
-0.0498183
0.0242268
-0.0625337
0.0292176
-0.0697986
0.0329307
-0.0738084
0.0359151
-0.0763417
0.0386083
-0.078429
0.0412588
-0.0805168
-0.0827271
0.0439773
0.00333605
-0.011964
0.0100259
-0.0373318
0.0166064
-0.0563988
0.0216069
-0.0675342
0.025043
-0.0732347
0.0274668
-0.0762322
0.0294143
-0.0782893
0.0312218
-0.0802365
0.0330414
-0.0823363
-0.0845997
0.034914
0.00353656
-0.0155006
0.00956237
-0.0433576
0.0147468
-0.0615832
0.0182004
-0.0709878
0.0202798
-0.075314
0.0216004
-0.0775528
0.0226205
-0.0793094
0.0235747
-0.0811908
0.0245399
-0.0833014
-0.0855902
0.0255303
0.00350354
-0.0190041
0.00854992
-0.048404
0.0122912
-0.0653245
0.0143377
-0.0730343
0.0152375
-0.0762139
0.0155807
-0.077896
0.0157276
-0.0794563
0.0158301
-0.0812932
0.0159234
-0.0833947
0.0160083
-0.0856751
-0.000475775
0.000475775
-0.00144776
0.000971985
-0.00268269
0.00123493
-0.00404884
0.00136615
-0.00547211
0.00142327
-0.00691613
0.00144403
-0.00837017
0.00145404
-0.00984096
0.00147078
-0.0113499
0.00150899
0.0015868
-0.0129367
-0.000429983
0.000905757
-0.00130905
0.00185105
-0.00241855
0.00234442
-0.00362564
0.00257324
-0.0048513
0.00264892
-0.00605169
0.00264442
-0.00720754
0.00260988
-0.0083185
0.00258174
-0.00939971
0.0025902
0.00267886
-0.0104918
-0.00035006
0.00125582
-0.00106727
0.00256826
-0.00195045
0.00322761
-0.00286931
0.00349211
-0.00373854
0.00351815
-0.00450187
0.00340775
-0.00512392
0.00323193
-0.00558966
0.00304748
-0.00590447
0.00290502
0.00285539
-0.00608101
-0.000258252
0.00151407
-0.000775946
0.00308595
-0.00137141
0.00382307
-0.00191857
0.00403926
-0.00232748
0.00392707
-0.00252983
0.0036101
-0.0024703
0.00317239
-0.00210592
0.00268311
-0.00141825
0.00221735
0.00192205
-0.000484913
-0.000175442
0.00168951
-0.000488249
0.00339876
-0.000768405
0.00410322
-0.000893135
0.00416399
-0.000769028
0.00380296
-0.000318163
0.00315924
0.000531207
0.00232302
0.00184751
0.0013668
0.00369228
0.000372579
-0.000483098
0.00609743
-0.000114413
0.00180392
-0.000233684
0.00351803
-0.000180253
0.00404979
0.000173851
0.00380989
0.000933879
0.00304293
0.0021899
0.00190321
0.00402609
0.00048684
0.0065214
-0.0011285
0.0097573
-0.00286333
-0.00467548
0.0139497
-7.47607e-05
0.00187868
2.3981e-06
0.00344087
0.000428531
0.00362366
0.00137353
0.00286489
0.00297027
0.00144619
0.00533086
-0.000457386
0.00854626
-0.00272856
0.0126766
-0.00525882
0.0177344
-0.00792111
-0.0110885
0.0241474
-4.38415e-05
0.00192252
0.000255483
0.00314155
0.00116899
0.00271015
0.00291289
0.00112099
0.00566937
-0.00131029
0.00957114
-0.00435915
0.01468
-0.00783741
0.0209733
-0.0115521
0.0283559
-0.0153038
-0.0198988
0.0371662
1.50399e-05
0.00190748
0.000626777
0.00252981
0.0022125
0.00112443
0.00505978
-0.00172629
0.00937535
-0.00562587
0.015244
-0.0102278
0.0226124
-0.0152058
0.0312577
-0.0201974
0.0410403
-0.0250864
-0.0303274
0.0514689
0.000117541
0.00119918
0.0037235
0.00802269
0.0142304
0.0222385
0.0317376
0.0422759
0.0536545
0.0641583
-0.0139385
0.00100177
-0.0149358
0.000997329
-0.0159051
0.000969211
-0.0168398
0.000934769
-0.0177352
0.000895355
-0.0185857
0.00085049
-0.0193856
0.000799954
-0.0201293
0.000743729
-0.0208114
0.00068209
-0.0214271
0.000615663
-0.0219726
0.000545458
-0.0224455
0.000472907
-0.0228453
0.000399888
-0.0231741
0.00032874
-0.0234362
0.000262153
-0.0236392
0.000202972
-0.0237934
0.000154223
-0.0239127
0.000119216
-0.024012
9.93518e-05
8.87058e-05
-0.0113484
0.00185835
-0.0122183
0.00186731
-0.0130811
0.00183192
-0.0139322
0.00178595
-0.014767
0.00173011
-0.0155795
0.00166296
-0.0163633
0.00158384
-0.0171121
0.00149246
-0.017819
0.00138899
-0.0184776
0.00127424
-0.0190818
0.00114972
-0.0196266
0.00101773
-0.0201083
0.000881518
-0.0205249
0.000745334
-0.0208771
0.000614396
-0.0211687
0.000494594
-0.0214069
0.000392353
-0.0216029
0.000315299
-0.0217737
0.000270119
0.000249402
-0.00666391
0.00244125
-0.00727266
0.00247606
-0.00790716
0.00246643
-0.00856587
0.00244467
-0.00924472
0.00240896
-0.00993893
0.00235717
-0.0106425
0.00228741
-0.0113487
0.00219861
-0.0120501
0.00209042
-0.0127389
0.00196307
-0.0134069
0.00181767
-0.0140455
0.00165636
-0.0146465
0.00148256
-0.0152024
0.00130121
-0.015707
0.00111899
-0.0161566
0.000944165
-0.0165503
0.000786084
-0.016892
0.000656998
-0.0171975
0.000575631
0.000545846
-0.000624168
0.00258051
-0.000880788
0.00273268
-0.00118754
0.00277318
-0.00153935
0.00279648
-0.00194435
0.00281395
-0.00240228
0.00281511
-0.00290898
0.00279412
-0.00345961
0.00274924
-0.00404885
0.00267965
-0.00467035
0.00258458
-0.00531655
0.00246386
-0.00597862
0.00231843
-0.00664661
0.00215055
-0.00730947
0.00196407
-0.00795543
0.00176495
-0.0085728
0.00156153
-0.00915066
0.00136394
-0.00967821
0.00118455
-0.0101531
0.00105052
0.00102082
0.00630593
0.00237201
0.006406
0.0026326
0.00644435
0.00273483
0.00643308
0.00280775
0.00635828
0.00288875
0.00621351
0.00295987
0.00599959
0.00300804
0.00571777
0.00303106
0.00536877
0.00302865
0.00495406
0.00299929
0.0044766
0.00294133
0.00394087
0.00285416
0.00335304
0.00273838
0.00272122
0.00259589
0.0020559
0.00243027
0.00137012
0.00224731
0.000678701
0.00205536
-3.00612e-06
0.00186626
-0.00064936
0.00169688
0.00157637
0.0143953
0.00192639
0.0147116
0.00231628
0.0149793
0.00246717
0.0152218
0.00256525
0.0154155
0.00269507
0.0155493
0.00282601
0.0156227
0.00293472
0.0156332
0.00302048
0.0155765
0.00308537
0.0154483
0.00312747
0.0152458
0.00314385
0.0149673
0.00313271
0.0146123
0.00309338
0.014182
0.00302619
0.0136797
0.00293257
0.0131112
0.00281578
0.0124858
0.0026808
0.0118172
0.00253478
0.0111326
0.00238153
0.00226997
0.0245328
0.00154097
0.0248363
0.00201277
0.0251314
0.00217209
0.025446
0.00225061
0.0257421
0.00239894
0.0260113
0.00255684
0.0262539
0.00269212
0.026464
0.00281039
0.0266324
0.00291698
0.0267508
0.0030091
0.0268119
0.00308268
0.0268093
0.00313529
0.0267372
0.00316556
0.0265905
0.00317286
0.0263658
0.00315725
0.0260609
0.00312069
0.025676
0.00306567
0.0252111
0.0029997
0.02467
0.00292267
0.00286153
0.0372264
0.00148081
0.0373378
0.00190133
0.037531
0.00197887
0.0377813
0.00200032
0.0380403
0.00213993
0.0383142
0.00228293
0.0386015
0.00240486
0.0388901
0.00252181
0.0391684
0.00263869
0.0394272
0.00275023
0.0396581
0.00285175
0.0398528
0.00294064
0.0400033
0.00301506
0.0401024
0.00307374
0.0401437
0.00311598
0.0401213
0.00314313
0.0400303
0.00315662
0.0398666
0.00316341
0.0396224
0.00316684
0.00318707
0.0513064
0.00164334
0.0513672
0.00184055
0.0516206
0.00172541
0.0518917
0.0017292
0.0521827
0.00184898
0.0525049
0.00196068
0.0528446
0.00206518
0.0531882
0.00217822
0.0535302
0.00229668
0.053867
0.00241347
0.0541938
0.00252488
0.0545059
0.00262854
0.0547982
0.00272277
0.055066
0.00280602
0.055304
0.00287788
0.055508
0.00293918
0.0556733
0.0029913
0.055796
0.00304075
0.0558761
0.00308675
0.00317318
0.0644908
0.00131081
0.0651803
0.00115103
0.0657746
0.00113116
0.0662803
0.00122346
0.0667852
0.00134411
0.06728
0.00146584
0.0677552
0.00158998
0.0682165
0.00171695
0.0686695
0.00184369
0.069117
0.001966
0.0695601
0.00208179
0.0699999
0.00218871
0.0704364
0.00228624
0.0708696
0.00237286
0.0712981
0.00244933
0.0717209
0.0025164
0.0721378
0.00257439
0.0725453
0.00263322
0.0729541
0.002678
0.00276722
0.0894709
0.00223354
-0.0903937
0.0884766
0.00214539
0.0875598
0.00204797
0.0867716
0.00201166
0.0860952
0.00202044
0.0855059
0.00205517
0.0849867
0.00210916
0.0845279
0.0021758
0.0841215
0.00225004
0.0837609
0.00232667
0.0834391
0.00240359
0.0831512
0.00247661
0.0828918
0.00254563
0.0826574
0.00260727
0.0824433
0.0026634
0.0822468
0.00271287
0.082065
0.00275619
0.0818963
0.00280196
0.0817423
0.002832
0.00289053
0.0989612
0.00245323
-0.0991809
0.0986239
0.00248272
0.0982145
0.00245731
0.097809
0.00241721
0.0974291
0.00240036
0.0970733
0.00241093
0.0967409
0.00244156
0.0964333
0.00248343
0.0961503
0.00253297
0.0958915
0.0025855
0.0956544
0.0026407
0.0954375
0.00269348
0.0952377
0.00274543
0.0950539
0.00279114
0.0948825
0.00283478
0.0947236
0.00287172
0.0945738
0.00290599
0.094437
0.00293878
0.0943075
0.00296149
0.0030014
0.105781
0.00266977
-0.105998
0.105643
0.0026205
0.105513
0.00258713
0.105386
0.00254439
0.105271
0.00251591
0.105169
0.00251246
0.10508
0.00253085
0.105002
0.00256169
0.104933
0.0026013
0.104875
0.00264417
0.104824
0.00269112
0.104781
0.00273626
0.104744
0.00278256
0.104712
0.0028231
0.104684
0.00286359
0.104658
0.00289712
0.104634
0.00292968
0.104614
0.00295889
0.104595
0.00298079
0.0030159
0.111259
0.00278605
-0.111375
0.111228
0.00265152
0.111235
0.00257961
0.111254
0.00252578
0.111284
0.00248629
0.111329
0.00246744
0.111389
0.00247051
0.111462
0.00248829
0.111546
0.00251729
0.111639
0.00255118
0.11174
0.00259078
0.111846
0.00263014
0.111956
0.00267224
0.112069
0.00271041
0.112183
0.00274927
0.112297
0.00278334
0.112411
0.00281548
0.112523
0.0028474
0.112634
0.00286895
0.00290708
0.116131
0.00276971
-0.116115
0.116182
0.00260024
0.116265
0.00249664
0.116364
0.00242682
0.116474
0.00237638
0.116597
0.00234407
0.116736
0.00233195
0.116889
0.00233544
0.117054
0.00235189
0.11723
0.00237514
0.117416
0.00240527
0.117609
0.00243721
0.117808
0.00247262
0.118012
0.00250696
0.118219
0.00254165
0.118427
0.00257537
0.118638
0.00260488
0.118846
0.0026394
0.119056
0.0026589
0.00270104
0.120936
0.00267617
-0.120843
0.121038
0.0024989
0.121159
0.00237484
0.121298
0.0022886
0.121447
0.00222678
0.121608
0.00218322
0.121782
0.00215806
0.121969
0.00214825
0.122169
0.00215193
0.12238
0.00216403
0.122602
0.00218358
0.122832
0.0022069
0.123071
0.0022338
0.123316
0.00226239
0.123567
0.00229067
0.12382
0.00232159
0.124079
0.00234642
0.124338
0.00238048
0.1246
0.00239684
0.00243937
0.125917
0.00254753
-0.125789
0.126047
0.00236957
0.126188
0.00223382
0.126342
0.0021346
0.126506
0.0020622
0.12668
0.002009
0.126865
0.00197301
0.127062
0.00195168
0.12727
0.00194354
0.12749
0.00194487
0.127719
0.0019539
0.127958
0.00196826
0.128205
0.00198615
0.12846
0.00200779
0.128722
0.00202877
0.128989
0.00205479
0.129261
0.00207411
0.129537
0.00210467
0.129816
0.00211759
0.0021565
0.131069
0.00239442
-0.130916
0.131219
0.00221981
0.131373
0.00207959
0.131536
0.00197224
0.131706
0.00189148
0.131885
0.00183035
0.132072
0.00178564
0.132269
0.00175484
0.132476
0.00173653
0.132693
0.00172814
0.132919
0.00172754
0.133154
0.00173327
0.133398
0.00174264
0.133649
0.00175695
0.133906
0.00177081
0.134171
0.00179078
0.13444
0.00180467
0.134715
0.00182989
0.134993
0.00183953
0.00187244
0.136258
0.00221544
-0.136079
0.136429
0.00204827
0.1366
0.00190877
0.136774
0.00179778
0.136954
0.00171166
0.13714
0.0016448
0.137332
0.00159361
0.137531
0.00155557
0.137738
0.00152918
0.137954
0.00151269
0.138177
0.00150394
0.138409
0.00150204
0.138647
0.00150399
0.138893
0.00151142
0.139145
0.00151895
0.139403
0.00153277
0.139666
0.00154183
0.139934
0.00156118
0.140206
0.00156796
0.00159426
0.141324
0.00200537
-0.141114
0.141525
0.0018478
0.141721
0.00171241
0.141917
0.00160169
0.142115
0.00151359
0.142316
0.00144373
0.142522
0.00138857
0.142731
0.00134577
0.142947
0.00131371
0.143168
0.00129124
0.143396
0.00127625
0.14363
0.00126829
0.143869
0.00126436
0.144115
0.00126609
0.144365
0.0012685
0.144621
0.00127702
0.144881
0.00128211
0.145146
0.00129625
0.145413
0.00130069
0.00132116
0.146177
0.00175515
-0.145927
0.146417
0.00160864
0.146649
0.0014803
0.146877
0.0013736
0.147103
0.00128715
0.147329
0.00121748
0.147557
0.00116124
0.147786
0.00111649
0.148018
0.00108146
0.148254
0.00105557
0.148494
0.00103665
0.148737
0.0010248
0.148985
0.00101684
0.149236
0.00101473
0.149491
0.00101347
0.14975
0.00101833
0.150011
0.00102049
0.150276
0.00103101
0.150543
0.00103367
0.0010501
0.150861
0.00145764
-0.150564
0.151145
0.00132485
0.151418
0.00120709
0.151683
0.00110829
0.151943
0.00102722
0.1522
0.000961263
0.152454
0.000907136
0.152707
0.000863597
0.152959
0.000828551
0.153213
0.0008022
0.153468
0.000781906
0.153724
0.00076877
0.153982
0.000758887
0.154241
0.00075525
0.154502
0.000751986
0.154765
0.00075533
0.15503
0.00075573
0.155296
0.00076475
0.155564
0.000766263
0.000780944
0.155586
0.00111914
-0.155248
0.155907
0.00100387
0.156214
0.000900592
0.156509
0.000813395
0.156795
0.000741166
0.157074
0.00068227
0.157347
0.000633405
0.157617
0.000594201
0.157883
0.000562028
0.158147
0.000538114
0.15841
0.00051899
0.158672
0.000507151
0.158933
0.000497437
0.159194
0.00049459
0.159455
0.000490958
0.159716
0.000494923
0.159977
0.000494715
0.160237
0.000504331
0.160498
0.000505291
0.000520424
0.160652
0.000768504
-0.160302
0.160982
0.000673769
0.161295
0.000587921
0.161593
0.000514944
0.161881
0.000453945
0.162158
0.000404492
0.162429
0.000363167
0.162692
0.000330575
0.162951
0.000303415
0.163205
0.000284055
0.163456
0.000267981
0.163704
0.000259304
0.16395
0.000251308
0.164194
0.000250863
0.164437
0.000248066
0.164677
0.000254069
0.164918
0.000254097
0.165157
0.000265618
0.165396
0.000266469
0.000283358
0.166233
0.000452418
-0.165917
0.166528
0.000378537
0.166806
0.00031071
0.167068
0.000252543
0.167318
0.000203426
0.167559
0.000164126
0.167791
0.000130997
0.168016
0.000105726
0.168235
8.4349e-05
0.168449
7.02031e-05
0.168659
5.78751e-05
0.168865
5.28688e-05
0.169069
4.71603e-05
0.169271
4.9433e-05
0.169471
4.79077e-05
0.169669
5.60663e-05
0.169866
5.66398e-05
0.170062
6.99983e-05
0.170258
7.09274e-05
8.9373e-05
0.17215
0.000213077
-0.171911
0.172371
0.000157579
0.172576
0.000106106
0.172767
6.15243e-05
0.172947
2.33593e-05
0.173118
-6.33464e-06
0.173281
-3.21194e-05
0.173437
-5.07695e-05
0.173588
-6.68351e-05
0.173735
-7.64539e-05
0.173878
-8.54148e-05
0.174019
-8.75096e-05
0.174157
-9.12567e-05
0.174294
-8.71791e-05
0.174429
-8.77005e-05
0.174564
-7.85053e-05
0.174698
-7.75583e-05
0.174832
-6.37318e-05
0.174966
-6.27736e-05
-4.43696e-05
0.177862
6.52401e-05
-0.177714
0.177995
2.50488e-05
0.178113
-1.23579e-05
0.17822
-4.48531e-05
0.178316
-7.30359e-05
0.178405
-9.49735e-05
0.178486
-0.000113708
0.178562
-0.000126901
0.178634
-0.000138492
0.178702
-0.000144748
0.178768
-0.00015103
0.178832
-0.000151449
0.178894
-0.000153837
0.178957
-0.000149369
0.179018
-0.000149386
0.179081
-0.000140793
0.179143
-0.000139816
0.179207
-0.000127434
0.17927
-0.000126596
-0.000110431
0.182726
-3.17119e-06
-0.182658
0.182781
-3.00539e-05
0.182824
-5.50678e-05
0.182856
-7.64338e-05
0.182878
-9.50144e-05
0.182892
-0.000109448
0.1829
-0.000121791
0.182904
-0.000130249
0.182903
-0.00013781
0.1829
-0.000141544
0.182894
-0.000145561
0.182888
-0.000145295
0.182881
-0.000146712
0.182875
-0.000143055
0.182868
-0.000142905
0.182864
-0.000136354
0.18286
-0.000135583
0.182858
-0.000126343
0.182858
-0.000125722
-0.00011379
0.18625
-1.23135e-05
-0.186241
0.186249
-2.96456e-05
0.186237
-4.29907e-05
0.186214
-5.33012e-05
0.186181
-6.22846e-05
0.186141
-6.93756e-05
0.186095
-7.55093e-05
0.186044
-7.96347e-05
0.18599
-8.33632e-05
0.185934
-8.51028e-05
0.185875
-8.70477e-05
0.185816
-8.67477e-05
0.185757
-8.73757e-05
0.185699
-8.5349e-05
0.185642
-8.51884e-05
0.185587
-8.16921e-05
0.185533
-8.1216e-05
0.185483
-7.63539e-05
0.185433
-7.59461e-05
-6.96555e-05
0.188107
-0.188119
0.188077
0.188034
0.187981
0.187919
0.187849
0.187774
0.187694
0.187611
0.187526
0.187439
0.187352
0.187264
0.187179
0.187094
0.187012
0.186931
0.186855
0.186779
0.0892315
0.0149165
-0.0881396
0.0903563
0.0244055
0.0915319
0.0337383
0.0927116
0.0427976
0.0939262
0.0513176
0.0950487
0.0593072
0.0958553
0.0664866
0.0963763
0.0723659
0.0937629
0.0782904
0.0768231
0.0919602
0.0139292
-0.090973
0.0930272
0.0233385
0.0942055
0.0325601
0.0954607
0.0415424
0.0967427
0.0500357
0.0981906
0.0578592
0.0992274
0.0654498
0.100802
0.0707918
0.100823
0.0782685
0.0784657
0.0949311
0.0130372
-0.094039
0.0959594
0.0223101
0.0971103
0.0314093
0.0984421
0.0402105
0.0997534
0.0487244
0.101416
0.0561967
0.10277
0.0640954
0.104524
0.0690383
0.106057
0.0767348
0.0785254
0.0980231
0.0122125
-0.0971985
0.0990542
0.021279
0.100213
0.0302506
0.101631
0.0387928
0.103047
0.0473079
0.104781
0.0544624
0.106473
0.0624037
0.108138
0.0673729
0.110251
0.0746225
0.0774011
0.10114
0.011425
-0.100352
0.1022
0.0202193
0.103429
0.029021
0.104938
0.0372845
0.106545
0.0457005
0.10832
0.0526874
0.110288
0.0604363
0.112039
0.0656219
0.114308
0.0723532
0.0755944
0.104199
0.0106455
-0.103419
0.105298
0.0191197
0.106647
0.0276726
0.108263
0.0356685
0.110101
0.0438623
0.112017
0.050771
0.114231
0.0582225
0.116274
0.0635785
0.118657
0.0699708
0.0734087
0.107125
0.00985104
-0.106331
0.108276
0.0179688
0.109762
0.0261862
0.111523
0.0339082
0.113599
0.0417856
0.115776
0.0485947
0.118254
0.0557443
0.120674
0.0611588
0.12329
0.0673547
0.0709098
0.109874
0.00902857
-0.109052
0.111091
0.0167523
0.112714
0.024563
0.114652
0.0319705
0.116963
0.0394741
0.119454
0.0461044
0.122235
0.0529631
0.125052
0.058342
0.128041
0.0643658
0.0680343
0.112458
0.00817365
-0.111603
0.113749
0.0154617
0.115497
0.0228148
0.117618
0.0298491
0.120154
0.0369388
0.122952
0.0433062
0.126067
0.0498478
0.12929
0.0551188
0.132739
0.0609173
0.0646943
0.114965
0.00728876
-0.11408
0.116325
0.0141019
0.118178
0.0209616
0.12046
0.0275675
0.123196
0.0342031
0.126264
0.0402376
0.129711
0.0464009
0.13333
0.0514997
0.137254
0.0569937
0.0608339
0.117566
0.00638507
-0.116662
0.118976
0.0126918
0.120906
0.0190312
0.123308
0.0251664
0.126205
0.0313055
0.129491
0.0369515
0.133224
0.0426684
0.137196
0.0475278
0.141548
0.0526416
0.0564544
0.120482
0.00547615
-0.119573
0.121913
0.0112606
0.123889
0.0170558
0.126367
0.0226877
0.12938
0.0282929
0.132827
0.0335041
0.136774
0.0387219
0.141032
0.0432701
0.145726
0.0479477
0.0516164
0.123903
0.00460014
-0.123027
0.125327
0.0098363
0.127321
0.0150622
0.129849
0.0201595
0.132941
0.025201
0.136511
0.0299343
0.140611
0.0346214
0.145093
0.0387887
0.150043
0.0429974
0.0464117
0.127865
0.00378986
-0.127055
0.129264
0.00843796
0.131265
0.0130613
0.133841
0.0175832
0.137008
0.0220337
0.140699
0.026243
0.144942
0.0303792
0.149625
0.0341052
0.154797
0.0378259
0.0409068
0.132151
0.00306157
-0.131422
0.133524
0.00706487
0.135545
0.0110403
0.138194
0.0149336
0.14147
0.0187583
0.145321
0.0223916
0.149749
0.025951
0.15467
0.0291845
0.160103
0.0323928
0.0350928
0.136327
0.00240317
-0.135669
0.137696
0.00569639
0.139767
0.00896955
0.142526
0.0121739
0.145959
0.0153258
0.150023
0.0183271
0.154707
0.0212673
0.159933
0.023959
0.165712
0.0266138
0.0288932
0.139955
0.00178112
-0.139333
0.141346
0.00430524
0.143495
0.00682071
0.146389
0.00927985
0.150009
0.0117056
0.154317
0.0140195
0.159297
0.0162869
0.164875
0.0183816
0.171057
0.0204315
0.0222355
0.142802
0.00117054
-0.142191
0.144226
0.00288066
0.146457
0.00459027
0.149478
0.0062588
0.153275
0.00790861
0.157809
0.00948519
0.163067
0.0110289
0.16898
0.0124685
0.175547
0.0138649
0.0151242
0.144825
0.000575947
-0.14423
0.146266
0.00143899
0.148551
0.00230532
0.151661
0.00314931
0.155584
0.003985
0.160285
0.0047846
0.165747
0.00556658
0.171915
0.00630099
0.178771
0.00700812
0.00765504
0.145925
-0.145349
0.147364
0.14967
0.152819
0.156804
0.161588
0.167155
0.173456
0.180464
0.0420352
0.0516075
-0.0455853
-0.0480574
0.036062
0.0502991
-0.0443259
0.0304909
0.0494517
-0.0438806
0.0252288
0.0491547
-0.0438926
0.020162
0.0493227
-0.0442559
0.0152247
0.0499387
-0.0450014
0.0104028
0.0508608
-0.0460389
0.00581972
0.0509504
-0.0463673
0.00196068
0.0461039
-0.0422449
0.0264205
-0.0244598
0.0401617
0.0575182
-0.0460724
0.0343754
0.0560854
0.0288679
0.0549592
0.023679
0.0543436
0.0187364
0.0542652
0.0139629
0.0547123
0.00934768
0.055476
0.0050497
0.0552484
0.0015846
0.049569
0.0280051
0.0373827
0.0630746
-0.0429391
0.0318971
0.061571
0.0266052
0.0602511
0.0215912
0.0593576
0.0168392
0.0590172
0.0122949
0.0592566
0.00796713
0.0598038
0.00405807
0.0591575
0.00110717
0.0525199
0.0291122
0.0335338
0.0682404
-0.0386995
0.0284733
0.0666316
0.0235582
0.0651662
0.0188681
0.0640477
0.0144217
0.0634636
0.0101997
0.0634786
0.0062512
0.0637522
0.0028436
0.0625651
0.000528137
0.0548354
0.0296404
0.0286979
0.072942
-0.0333995
0.0241343
0.0711951
0.0197114
0.0695891
0.0154776
0.0682815
0.0114591
0.0674821
0.00766708
0.0672706
0.00419667
0.0672226
0.00139749
0.0653642
-0.000140765
0.0563736
0.0294996
0.0229071
0.0770581
-0.0270232
0.0189423
0.07516
0.0151148
0.0734165
0.0114467
0.0719497
0.00796366
0.0709652
0.00470931
0.070525
0.00183689
0.0700951
-0.000279288
0.0674804
-0.000809762
0.0569041
0.0286899
0.0162795
0.0804693
-0.0196907
0.0130042
0.0784353
0.00985495
0.0765658
0.00684057
0.074964
0.00398514
0.0738206
0.00137023
0.0731399
-0.000767892
0.0722332
-0.00189661
0.0686091
-0.0015
0.0565075
0.0271899
0.0089274
0.0830773
-0.0115354
0.00641881
0.0809439
0.00402677
0.0789578
0.00174344
0.0772474
-0.000403601
0.0759676
-0.00228781
0.0750241
-0.00356897
0.0735143
-0.00368262
0.0687228
-0.00217333
0.0549982
0.0250165
0.000977858
0.0848734
-0.00277391
-0.000680178
0.0826019
-0.00226317
0.0805408
-0.0037758
0.07876
-0.00515517
0.077347
-0.00620919
0.0760781
-0.0065219
0.0738271
-0.00546993
0.0676708
-0.00277477
0.052303
0.0222418
-0.00734931
0.00654762
-0.00814213
-0.00889456
-0.00959091
-0.01014
-0.0102757
-0.00948299
-0.00713662
-0.00323763
0.0325153
0.0030819
-0.0355972
0.0293115
0.00320388
0.0259663
0.00334518
0.0224592
0.00350707
0.0187622
0.00369698
0.0148417
0.0039205
0.0106787
0.004163
0.00636016
0.00431857
0.00234456
0.0040156
0.00234456
0.0330926
0.00629448
-0.0363052
0.0297734
0.00652304
0.026328
0.00679055
0.0227356
0.00709948
0.0189676
0.00746502
0.0149891
0.00789899
0.0107779
0.00837417
0.00641762
0.0086789
0.00237271
0.00806051
0.00471727
0.0341855
0.00975563
-0.0376466
0.0306468
0.0100617
0.0270104
0.010427
0.0232548
0.0108551
0.0193504
0.0113694
0.0152607
0.0119887
0.0109603
0.0126745
0.00652725
0.013112
0.00241667
0.0121711
0.00713394
0.0356755
0.0135563
-0.0394762
0.0318357
0.0139016
0.0279362
0.0143264
0.0239555
0.0148357
0.0198632
0.0154617
0.0156205
0.0162313
0.0111983
0.0170968
0.00666665
0.0176436
0.00247274
0.016365
0.00960668
0.0374
0.0177531
-0.0415967
0.0332062
0.0180954
0.0289963
0.0185364
0.0247501
0.0190819
0.0204369
0.019775
0.0160154
0.0206528
0.0114521
0.0216601
0.00680991
0.0222858
0.00252804
0.0206469
0.0121347
0.0391733
0.0223607
-0.0437809
0.034605
0.0226637
0.0300634
0.023078
0.0255342
0.0236111
0.020987
0.0243222
0.0163787
0.0252611
0.0116719
0.0263669
0.00692389
0.0270338
0.00256707
0.0250037
0.0147018
0.0407819
0.027374
-0.0457952
0.0358424
0.0276032
0.0309823
0.0279381
0.0261887
0.0284047
0.0214237
0.0290871
0.0166417
0.0300432
0.0118061
0.0312025
0.00697353
0.0318664
0.00257339
0.0294038
0.0172752
0.0421066
0.0327731
-0.0475058
0.0367924
0.0329174
0.0316308
0.0330997
0.0266004
0.033435
0.0216488
0.0340388
0.0167265
0.0349655
0.0117976
0.0361313
0.00692166
0.0367424
0.00253005
0.0337954
0.0198052
0.0427513
0.0386601
-0.0486382
0.0371427
0.038526
0.0318143
0.0384282
0.0266385
0.0386107
0.021562
0.0391153
0.0165547
0.0399728
0.0115884
0.0410976
0.00673069
0.0416001
0.00242053
0.0381056
0.0222258
0.0427853
-0.0497106
0.0369854
0.031533
0.0262511
0.0211105
0.0160818
0.0111406
0.00637329
0.00223402
0.0391857
-0.000104424
0.0392892
-0.000103519
0.0393898
-0.000100558
0.0394831
-9.33508e-05
0.0395656
-8.25071e-05
0.0396338
-6.81505e-05
0.0396836
-4.98513e-05
0.0397104
-2.68013e-05
0.0397079
2.55082e-06
0.0396759
3.20013e-05
0.039607
6.89153e-05
0.0394938
0.000113182
0.039328
0.000165773
0.0390999
0.000228059
0.0387982
0.000301777
0.0384091
0.000389047
0.0379165
0.000492576
0.037301
0.000615509
0.0365388
0.000762197
0.000941604
0.0400357
-0.000209893
0.0401388
-0.000206566
0.0402374
-0.00019914
0.0403282
-0.000184154
0.0404079
-0.000162262
0.0404731
-0.000133274
0.0405195
-9.62635e-05
0.0405423
-4.96225e-05
0.0405364
8.49135e-06
0.0404998
6.85983e-05
0.0404254
0.000143302
0.0403057
0.000232811
0.0401324
0.000339096
0.0398956
0.000464907
0.0395836
0.000613729
0.0391829
0.000789784
0.0386769
0.000998536
0.0380463
0.00124613
0.0372672
0.0015413
0.00190364
0.0417074
-0.000307228
0.0418027
-0.000301865
0.0418939
-0.000290342
0.0419772
-0.000267434
0.042049
-0.000234049
0.0421055
-0.000189834
0.0421425
-0.000133287
0.0421546
-6.1669e-05
0.0421388
2.42602e-05
0.0420905
0.000116933
0.0420027
0.000231066
0.0418679
0.000367666
0.0416772
0.000529722
0.0414208
0.000721381
0.0410866
0.000947898
0.0406608
0.00121557
0.0401267
0.0015327
0.0394645
0.00190823
0.038651
0.00235485
0.00290801
0.0441406
-0.000386144
0.0442175
-0.000378711
0.0442904
-0.000363274
0.0443553
-0.000332369
0.0444082
-0.000286909
0.0444449
-0.000226508
0.0444608
-0.00014922
0.0444506
-5.15071e-05
0.0444144
6.04935e-05
0.0443424
0.000188888
0.0442285
0.000344985
0.0440649
0.000531252
0.0438428
0.000751889
0.0435516
0.00101253
0.0431793
0.00132021
0.0427115
0.00168337
0.0421311
0.00211312
0.0414178
0.00262151
0.0405498
0.00322291
0.00398154
0.0472541
-0.000429877
0.0472955
-0.00042011
0.0473326
-0.000400444
0.0473616
-0.000361319
0.0473781
-0.000303377
0.0473776
-0.000226058
0.0473556
-0.000127179
0.0473007
3.39286e-06
0.0472257
0.000135426
0.0471113
0.000303364
0.0469518
0.000504494
0.0467397
0.000743353
0.0464658
0.00102572
0.0461194
0.00135899
0.0456878
0.00175177
0.0451561
0.00221504
0.0445072
0.00276208
0.0437185
0.00341013
0.0427725
0.00416893
0.00515731
0.0509538
-0.000414374
0.0509352
-0.000401542
0.0509109
-0.000376203
0.0508773
-0.000327649
0.0508298
-0.000255888
0.0507636
-0.000159859
0.0506703
-3.38399e-05
0.0505648
0.000108845
0.0504194
0.000280779
0.0502338
0.000488999
0.0500011
0.000737214
0.0497129
0.00103158
0.0493599
0.00137864
0.0489306
0.0017883
0.0484126
0.00226985
0.0477889
0.00283871
0.0470438
0.0035072
0.0461496
0.00430428
0.045098
0.00522053
0.00647444
0.0551437
-0.000306804
0.0550315
-0.000289388
0.0549116
-0.000256239
0.0547818
-0.000197912
0.0546366
-0.000110695
0.0544656
1.11475e-05
0.054285
0.000146737
0.0540736
0.000320254
0.053825
0.000529438
0.0535341
0.000779915
0.0531941
0.00107713
0.0527959
0.00142982
0.0523306
0.00184396
0.0517849
0.00233404
0.0511483
0.00290641
0.0504
0.00358703
0.0495293
0.00437793
0.0484945
0.00533907
0.0472991
0.00641591
0.00797837
0.0597357
-6.32021e-05
0.059487
-4.06521e-05
0.0592238
6.8773e-06
0.0589516
7.43365e-05
0.0586666
0.000174253
0.0583707
0.000307102
0.0580444
0.000472981
0.0576875
0.000677237
0.057294
0.000922874
0.0568568
0.00121718
0.0563693
0.00156455
0.0558209
0.00197824
0.0552039
0.00246096
0.0545007
0.00303723
0.0537061
0.003701
0.0527901
0.0045031
0.0517588
0.00540922
0.0505463
0.00655156
0.0491926
0.00776954
0.00966523
0.0646512
0.000360309
0.0642134
0.000397176
0.0637686
0.000451611
0.0633119
0.00053109
0.0628417
0.000644399
0.062352
0.000796875
0.061836
0.000988898
0.0612887
0.00122457
0.0607052
0.0015064
0.0600772
0.00184512
0.0593998
0.00224198
0.0586602
0.00271782
0.0578546
0.00326662
0.0569573
0.00393453
0.0559739
0.0046844
0.0548485
0.0056285
0.0536226
0.00663506
0.052149
0.0080252
0.050619
0.0092995
0.011646
0.0698896
0.00108197
0.0691941
0.00109267
0.0685027
0.00114304
0.067805
0.00122885
0.0670941
0.0013553
0.0663633
0.0015276
0.0656081
0.00174418
0.0648228
0.00200983
0.0640038
0.0023254
0.063142
0.00270687
0.0622341
0.00314994
0.0612647
0.00368716
0.0602378
0.00429353
0.0591248
0.00504754
0.0579542
0.00585503
0.0566481
0.00693463
0.0553243
0.00795877
0.0537079
0.00964167
0.0522107
0.0107967
0.0141462
0.0696675
0.00108571
0.0696679
0.00109229
0.0696688
0.00114215
0.0696723
0.00122532
0.0696752
0.00135243
0.0696745
0.00152824
0.0696728
0.00174588
0.0696721
0.00201054
0.0696774
0.0023201
0.0696888
0.00269543
0.0697158
0.00312302
0.0697564
0.00364652
0.0698338
0.0042161
0.0699378
0.00494353
0.0701241
0.00566876
0.0703519
0.00670686
0.0707684
0.00754222
0.0712959
0.00911421
0.0723995
0.00969302
0.012174
0.0743717
0.0751207
0.00102987
0.0751288
0.0010842
0.0751412
0.0011298
0.0751639
0.00120254
0.0751853
0.00133107
0.0752013
0.0015122
0.0752175
0.00172973
0.0752376
0.00199043