/*--------------------------------*- C++ -*----------------------------------*\
| =========                 |                                                 |
| \\      /  F ield         | OpenFOAM: The Open Source CFD Toolbox           |
|  \\    /   O peration     | Version:  4.1                                   |
|   \\  /    A nd           | Web:      www.OpenFOAM.org                      |
|    \\/     M anipulation  |                                                 |
\*---------------------------------------------------------------------------*/
FoamFile
{
    version     2.0;
    format      ascii;
    class       volScalarField;
    location    "2";
    object      p;
}
// * * * * * * * * * * * * * * * * * * * * * * * * * * * * * * * * * * * * * //

dimensions      [0 2 -2 0 0 0 0];

internalField   nonuniform List<scalar> 
2000
(
0.182678
0.189909
0.197356
0.206042
0.214978
0.222974
0.229397
0.234057
0.236816
0.237786
0.182634
0.190409
0.198914
0.209052
0.219583
0.229142
0.237023
0.242986
0.246875
0.249179
0.18411
0.192459
0.202152
0.213875
0.226078
0.237226
0.246558
0.253834
0.258955
0.262576
0.187429
0.196371
0.207361
0.220762
0.23466
0.24736
0.258072
0.266574
0.272836
0.277619
0.192911
0.202453
0.21482
0.229944
0.245508
0.259679
0.271668
0.281292
0.288597
0.294412
0.200864
0.210994
0.224784
0.241618
0.258759
0.274276
0.287407
0.298026
0.306267
0.313001
0.211574
0.222254
0.23747
0.25594
0.274517
0.291214
0.305324
0.316799
0.325866
0.333395
0.225288
0.236457
0.253049
0.273017
0.292835
0.310511
0.325419
0.3376
0.347378
0.355576
0.242203
0.25377
0.271635
0.292899
0.313718
0.332142
0.347649
0.360376
0.370744
0.379467
0.262451
0.274295
0.293275
0.315574
0.337111
0.35603
0.371928
0.385036
0.395857
0.404935
0.204858
0.209132
0.212424
0.214869
0.215973
0.215388
0.213075
0.209181
0.203942
0.197619
0.204102
0.208441
0.21178
0.214317
0.215555
0.215134
0.213005
0.209303
0.204257
0.198114
0.202636
0.207089
0.210536
0.213256
0.214761
0.214671
0.212909
0.209586
0.204924
0.199139
0.20054
0.205161
0.20878
0.211781
0.213691
0.214095
0.212876
0.210111
0.206008
0.200748
0.197932
0.202777
0.206637
0.210027
0.212484
0.213544
0.213034
0.210989
0.207604
0.203019
0.19497
0.200092
0.204275
0.208174
0.211324
0.213194
0.213545
0.212361
0.209828
0.206042
0.191848
0.1973
0.201896
0.206435
0.210428
0.213253
0.214594
0.214389
0.212816
0.209928
0.188792
0.194623
0.199738
0.205062
0.210046
0.213954
0.216383
0.217227
0.216679
0.214747
0.186058
0.192313
0.198068
0.204337
0.210471
0.21559
0.219191
0.221122
0.221559
0.220352
0.183922
0.190644
0.197175
0.204565
0.212021
0.218508
0.223441
0.226637
0.228098
0.227023
0.190414
0.182416
0.17389
0.164971
0.155744
0.146275
0.136618
0.126818
0.11691
0.106918
0.0968632
0.0867609
0.0766232
0.0664597
0.0562779
0.0460838
0.0358827
0.0256763
0.0154811
0.005305
0.190957
0.183021
0.17456
0.165681
0.156466
0.146991
0.137317
0.127489
0.117545
0.107512
0.0974109
0.0872584
0.0770676
0.0668484
0.0566086
0.0463537
0.0360867
0.0258106
0.0155594
0.00533225
0.192082
0.184271
0.175934
0.167124
0.157929
0.14844
0.138727
0.128842
0.118826
0.108707
0.0985121
0.088258
0.0779598
0.067629
0.0572752
0.0469072
0.0365348
0.0261678
0.0157481
0.00538176
0.193836
0.186206
0.178033
0.16931
0.160135
0.150621
0.140847
0.130874
0.120747
0.110501
0.100164
0.0897573
0.0792978
0.0687986
0.05827
0.0477192
0.0371501
0.0265634
0.0159674
0.00544368
0.196293
0.188894
0.180909
0.172273
0.163108
0.15355
0.143689
0.133593
0.123316
0.112897
0.102369
0.0917573
0.0810811
0.0703556
0.0595931
0.0488035
0.0379964
0.0271845
0.0163766
0.00554971
0.199534
0.192406
0.184608
0.17604
0.166865
0.157238
0.147259
0.137005
0.126535
0.115899
0.105133
0.0942656
0.0833205
0.0723155
0.0612649
0.0501804
0.0390704
0.0279393
0.01678
0.00563409
0.203644
0.196812
0.189179
0.180642
0.171425
0.1617
0.151568
0.141112
0.130404
0.119499
0.108441
0.0972618
0.0859897
0.0746453
0.0632455
0.0518037
0.0403313
0.0288405
0.0173424
0.0058852
0.208689
0.202186
0.194677
0.186101
0.176788
0.166924
0.156603
0.145914
0.134936
0.123728
0.11234
0.100808
0.0891629
0.0774292
0.0656258
0.0537685
0.0418702
0.0299426
0.0179898
0.006047
0.214325
0.208367
0.201087
0.192454
0.182986
0.172905
0.162311
0.151304
0.139971
0.128382
0.11659
0.104639
0.0925629
0.0803887
0.0681383
0.0558286
0.0434731
0.0310835
0.0186647
0.00625105
0.220189
0.215236
0.208445
0.199946
0.190445
0.180227
0.169417
0.158126
0.146449
0.134464
0.122232
0.1098
0.0972077
0.0844867
0.0716624
0.0587555
0.0457825
0.0327577
0.0196863
0.00659525
0.231026
0.223449
0.215489
0.206186
0.195949
0.185098
0.173754
0.161995
0.149897
0.137526
0.124935
0.112168
0.0992594
0.086238
0.0731271
0.0599454
0.0467075
0.0334253
0.0201016
0.00674749
0.236467
0.226947
0.217721
0.207726
0.197026
0.18585
0.174286
0.162377
0.150176
0.137734
0.125095
0.112292
0.0993578
0.0863157
0.0731867
0.0599874
0.046731
0.0334277
0.0200837
0.0067103
0.241146
0.230578
0.220461
0.20982
0.198639
0.187089
0.175239
0.163114
0.150748
0.13818
0.125442
0.112564
0.0995694
0.0864786
0.073309
0.0600751
0.0467883
0.0334578
0.0200931
0.00669608
0.245588
0.234267
0.223381
0.212123
0.200473
0.188557
0.176418
0.164065
0.15152
0.138808
0.125956
0.112983
0.0999104
0.0867534
0.0735266
0.0602422
0.0469104
0.0335384
0.0201376
0.00669758
0.24977
0.237782
0.226211
0.214396
0.202314
0.190053
0.177634
0.165056
0.15233
0.139472
0.1265
0.113429
0.100273
0.0870459
0.0737583
0.0604203
0.0470405
0.0336243
0.0201843
0.00669973
0.253633
0.241077
0.228919
0.216615
0.204143
0.19156
0.178874
0.166077
0.153171
0.140165
0.12707
0.113896
0.100654
0.0873531
0.0740016
0.0606074
0.0471773
0.0337149
0.0202339
0.00670439
0.257169
0.244143
0.231482
0.218753
0.205931
0.193054
0.180119
0.167112
0.15403
0.140878
0.12766
0.114382
0.101051
0.0876742
0.0742565
0.0608037
0.0473213
0.033811
0.0202874
0.00671203
0.260384
0.246968
0.233879
0.220781
0.207649
0.194506
0.181341
0.168137
0.154889
0.141595
0.128256
0.114875
0.101456
0.0880022
0.0745174
0.0610052
0.0474697
0.0339105
0.0203433
0.00672192
0.263287
0.249547
0.236094
0.222678
0.209276
0.195894
0.18252
0.169135
0.15573
0.142301
0.128847
0.115366
0.10186
0.0883305
0.0747792
0.0612079
0.0476192
0.0340113
0.0204003
0.00673351
0.265888
0.251878
0.23812
0.224432
0.210793
0.197201
0.183639
0.170088
0.156539
0.142985
0.129421
0.115845
0.102256
0.0886532
0.0750371
0.061408
0.0477672
0.0341115
0.0204572
0.00674633
0.268201
0.253967
0.239952
0.226033
0.212191
0.198414
0.184685
0.170986
0.157306
0.143636
0.12997
0.116305
0.102637
0.0889645
0.0752865
0.0616019
0.0479109
0.0342091
0.0205129
0.00675986
0.270239
0.25582
0.24159
0.227476
0.213459
0.199523
0.185647
0.171816
0.158018
0.144243
0.130485
0.116737
0.102997
0.0892592
0.0755232
0.0617862
0.0480479
0.0343023
0.0205664
0.0067736
0.272016
0.257443
0.243035
0.228759
0.214594
0.200519
0.186517
0.172571
0.158669
0.144801
0.130959
0.117137
0.103329
0.0895327
0.0757432
0.061958
0.0481757
0.0343897
0.0206167
0.00678708
0.273544
0.258845
0.24429
0.229879
0.21559
0.201399
0.187288
0.173243
0.15925
0.145301
0.131385
0.117497
0.103631
0.0897807
0.0759431
0.0621143
0.0482923
0.0344695
0.0206627
0.00679988
0.274834
0.260032
0.245358
0.230837
0.216446
0.202158
0.187957
0.173827
0.159758
0.145738
0.13176
0.117814
0.103896
0.0899997
0.07612
0.0622529
0.0483958
0.0345404
0.0207038
0.00681159
0.275896
0.261012
0.246243
0.231634
0.21716
0.202794
0.188518
0.174319
0.160186
0.146109
0.132077
0.118084
0.104123
0.0901867
0.0762713
0.0623715
0.0484845
0.0346014
0.0207391
0.00682189
0.276738
0.26179
0.246948
0.23227
0.217732
0.203304
0.18897
0.174716
0.160533
0.146409
0.132336
0.118304
0.104307
0.0903393
0.0763948
0.0624685
0.0485571
0.0346514
0.0207681
0.00683051
0.277367
0.262372
0.247476
0.232747
0.218162
0.203688
0.18931
0.175016
0.160795
0.146637
0.132531
0.11847
0.104447
0.0904554
0.0764889
0.0625424
0.0486125
0.0346896
0.0207903
0.00683722
0.27779
0.262761
0.247827
0.233065
0.218448
0.203945
0.189538
0.175217
0.160971
0.146789
0.132663
0.118583
0.104542
0.0905336
0.0765523
0.0625923
0.0486499
0.0347155
0.0208053
0.00684234
0.278023
0.262966
0.248008
0.233226
0.218592
0.204074
0.189652
0.175318
0.161059
0.146866
0.132729
0.118639
0.104589
0.0905729
0.0765842
0.0626174
0.0486686
0.0347286
0.0208121
0.00684782
0.412348
0.387185
0.36346
0.341293
0.32077
0.301906
0.284717
0.269054
0.254979
0.241379
0.418564
0.39408
0.370859
0.348982
0.328521
0.309483
0.291922
0.27563
0.261082
0.246939
0.423995
0.400172
0.377458
0.355915
0.335622
0.316579
0.298888
0.282301
0.267436
0.252732
0.428649
0.405369
0.383071
0.361818
0.341689
0.322679
0.30491
0.288108
0.272893
0.257876
0.432654
0.409842
0.387912
0.36693
0.346967
0.328016
0.3102
0.293265
0.277786
0.262612
0.436086
0.413713
0.392125
0.371401
0.351607
0.332738
0.314912
0.297912
0.282223
0.266928
0.439065
0.417076
0.395802
0.37532
0.355692
0.336919
0.319103
0.302071
0.286214
0.27082
0.441647
0.420005
0.39902
0.378764
0.359296
0.340623
0.322833
0.305789
0.289801
0.274324
0.443889
0.422562
0.401841
0.381795
0.362482
0.343911
0.326154
0.30911
0.29302
0.277467
0.445836
0.424794
0.404316
0.384466
0.365299
0.346827
0.32911
0.312072
0.295899
0.280272
0.447523
0.426739
0.406485
0.386818
0.367789
0.349412
0.331736
0.314706
0.298462
0.282762
0.448978
0.428431
0.408382
0.388885
0.369985
0.351698
0.334062
0.317038
0.300732
0.284957
0.450225
0.429895
0.410034
0.390695
0.371915
0.353711
0.336114
0.319093
0.302728
0.286875
0.451284
0.431152
0.411465
0.392271
0.373602
0.355475
0.337912
0.32089
0.304467
0.288531
0.45217
0.432219
0.412693
0.393632
0.375066
0.357008
0.339474
0.322446
0.305963
0.289938
0.452895
0.43311
0.413731
0.394793
0.37632
0.358324
0.340813
0.323773
0.307229
0.291108
0.453469
0.433837
0.414592
0.395766
0.377378
0.359435
0.341943
0.324885
0.308274
0.292051
0.453901
0.434406
0.415283
0.396558
0.378245
0.360348
0.342867
0.325785
0.309106
0.292774
0.4542
0.43483
0.415819
0.397185
0.378939
0.36108
0.343603
0.326489
0.309734
0.293286
0.454348
0.435103
0.416204
0.397663
0.379484
0.361662
0.344186
0.327035
0.310198
0.29362
0.694477
0.690733
0.684127
0.676313
0.667497
0.657286
0.645278
0.631641
0.618691
0.614652
0.66877
0.663258
0.654764
0.64561
0.635478
0.623643
0.609692
0.593925
0.578894
0.573249
0.641036
0.634113
0.624471
0.614219
0.602758
0.589291
0.573456
0.555694
0.538734
0.531634
0.611306
0.60358
0.593305
0.582191
0.569545
0.554596
0.537061
0.517548
0.498858
0.490524
0.580835
0.572502
0.561755
0.549905
0.536224
0.519986
0.500993
0.480064
0.459872
0.45059
0.550185
0.541347
0.530243
0.517786
0.50323
0.48591
0.46572
0.44376
0.422399
0.412346
0.519671
0.510451
0.499124
0.48621
0.470959
0.452779
0.431636
0.408538
0.3875
0.376491
0.489611
0.480143
0.468736
0.455534
0.43979
0.420987
0.399182
0.375766
0.354909
0.3433
0.460306
0.450743
0.439406
0.426086
0.410054
0.390932
0.368887
0.345506
0.324989
0.313084
0.431891
0.422576
0.411442
0.39813
0.382056
0.362903
0.340955
0.317939
0.298058
0.28609
0.859522
0.856935
0.855208
0.85443
0.854627
0.855786
0.857787
0.860304
0.863777
0.872427
0.856508
0.853697
0.851831
0.850887
0.850864
0.85175
0.853422
0.855553
0.858584
0.866979
0.850482
0.847242
0.845102
0.843831
0.843373
0.843715
0.844725
0.846087
0.848319
0.856108
0.84146
0.837615
0.835083
0.833331
0.832236
0.831782
0.831823
0.832059
0.833135
0.840023
0.829472
0.824883
0.82186
0.81949
0.817573
0.816094
0.814886
0.813674
0.813268
0.818999
0.81456
0.809132
0.805546
0.80244
0.799542
0.796841
0.794142
0.791204
0.789035
0.793393
0.796815
0.790491
0.786299
0.782361
0.778351
0.774263
0.769875
0.764987
0.760833
0.763646
0.776195
0.769008
0.764249
0.75944
0.754234
0.748646
0.742426
0.735427
0.729132
0.730278
0.752959
0.74498
0.739724
0.733975
0.727496
0.720337
0.712197
0.702991
0.694469
0.69388
0.725774
0.718487
0.712956
0.706223
0.69848
0.689747
0.679653
0.668208
0.657442
0.655106
0.995696
0.987197
0.978813
0.970482
0.962203
0.954002
0.945903
0.937926
0.93009
0.922412
0.91495
0.907728
0.900774
0.894118
0.887798
0.881854
0.876332
0.871277
0.866738
0.862767
0.995654
0.987073
0.978601
0.970178
0.961807
0.953513
0.945318
0.93724
0.929293
0.921511
0.913937
0.906595
0.899508
0.892709
0.886232
0.880114
0.874396
0.86912
0.864327
0.860062
0.995575
0.986824
0.978172
0.969568
0.961012
0.952528
0.944134
0.93585
0.927687
0.919703
0.911911
0.904328
0.89698
0.889895
0.883104
0.876638
0.870528
0.864809
0.859508
0.854647
0.995456
0.986449
0.97753
0.968656
0.959831
0.951076
0.942412
0.933847
0.925338
0.917025
0.908895
0.900948
0.893207
0.885696
0.878436
0.871449
0.864754
0.858369
0.852304
0.846526
0.995296
0.985951
0.976678
0.967446
0.958254
0.949114
0.940037
0.931025
0.922195
0.913489
0.904909
0.896481
0.888223
0.880148
0.872267
0.864587
0.857113
0.849838
0.84275
0.835711
0.995094
0.98532
0.975603
0.965921
0.956279
0.946697
0.937199
0.927662
0.918318
0.909083
0.899945
0.890921
0.882021
0.873247
0.864596
0.856057
0.847612
0.839226
0.830866
0.822215
0.994856
0.98459
0.974368
0.964175
0.954008
0.943855
0.933642
0.923688
0.913796
0.90394
0.894143
0.884416
0.874757
0.865154
0.855587
0.846024
0.836418
0.826691
0.816802
0.806144
0.994558
0.983673
0.972815
0.961999
0.951209
0.940308
0.929623
0.919007
0.908397
0.897808
0.887248
0.876707
0.866167
0.8556
0.844964
0.834204
0.823243
0.811953
0.800322
0.787353
0.99429
0.982853
0.971402
0.959829
0.948283
0.936959
0.925611
0.914239
0.902863
0.891483
0.880089
0.868657
0.857156
0.845542
0.833751
0.821693
0.809246
0.796189
0.782518
0.766591
0.993798
0.981373
0.968962
0.956693
0.944452
0.932205
0.919953
0.907692
0.895406
0.883077
0.870678
0.858173
0.845508
0.832612
0.819389
0.805704
0.791395
0.776199
0.760142
0.741271
0.993613
0.980836
0.968052
0.955257
0.942435
0.929589
0.916709
0.903775
0.890764
0.877647
0.864386
0.85093
0.837211
0.823135
0.808583
0.793391
0.777339
0.760057
0.741106
0.718751
0.993483
0.980443
0.96739
0.954319
0.94122
0.928081
0.914885
0.901609
0.888226
0.874705
0.861004
0.84707
0.832833
0.818203
0.803066
0.787271
0.77063
0.75288
0.733803
0.712922
0.993364
0.980076
0.966764
0.953429
0.940058
0.926633
0.913135
0.899539
0.885817
0.871936
0.857853
0.843514
0.828854
0.813791
0.798224
0.782028
0.765057
0.747141
0.728113
0.707745
0.993245
0.979709
0.966138
0.952535
0.938888
0.925176
0.911376
0.897464
0.88341
0.86918
0.854732
0.840014
0.824966
0.809514
0.793571
0.777037
0.759798
0.741733
0.722698
0.702596
0.993128
0.979349
0.965526
0.951667
0.937755
0.92377
0.909688
0.895482
0.881123
0.866577
0.851803
0.836754
0.821374
0.805601
0.789359
0.772568
0.755138
0.736986
0.718
0.698153
0.993015
0.979004
0.964941
0.950837
0.936677
0.922437
0.908092
0.893618
0.878983
0.864156
0.849098
0.833767
0.818112
0.802079
0.785606
0.76863
0.75108
0.732899
0.713999
0.694379
0.992908
0.978676
0.964385
0.950051
0.935659
0.921182
0.906597
0.891877
0.876995
0.861919
0.846614
0.831041
0.815158
0.798916
0.782266
0.765157
0.747533
0.729356
0.710556
0.69114
0.992807
0.978367
0.963864
0.949316
0.934707
0.920012
0.905207
0.890266
0.875162
0.859867
0.844348
0.828571
0.812498
0.796089
0.779303
0.762099
0.744435
0.726284
0.707589
0.688365
0.992712
0.978079
0.963379
0.948633
0.933826
0.918932
0.903927
0.888788
0.873488
0.858002
0.842299
0.826349
0.81012
0.793577
0.776688
0.759419
0.741739
0.723627
0.705041
0.685998
0.992624
0.977814
0.962933
0.948006
0.933019
0.917945
0.902761
0.887445
0.871973
0.85632
0.84046
0.824365
0.808008
0.79136
0.774393
0.757082
0.739402
0.721339
0.702861
0.683987
0.992545
0.977572
0.962528
0.947437
0.932287
0.917052
0.901709
0.886238
0.870615
0.854819
0.838824
0.822608
0.806147
0.789415
0.772391
0.755054
0.737386
0.719378
0.701003
0.682284
0.992472
0.977354
0.962163
0.946926
0.931632
0.916254
0.900771
0.885163
0.86941
0.853491
0.837384
0.821067
0.804521
0.787724
0.770658
0.753308
0.735659
0.717705
0.699429
0.680849
0.992408
0.977161
0.961841
0.946475
0.931053
0.91555
0.899945
0.88422
0.868355
0.852331
0.836129
0.81973
0.803115
0.786268
0.769173
0.751818
0.734191
0.716291
0.698106
0.679651
0.992352
0.976992
0.961559
0.946081
0.930549
0.914939
0.89923
0.883404
0.867445
0.851333
0.835053
0.818586
0.801917
0.785031
0.767915
0.750561
0.732959
0.715109
0.697004
0.678659
0.992304
0.976848
0.961319
0.945746
0.930121
0.914419
0.898622
0.882713
0.866675
0.850491
0.834146
0.817625
0.800913
0.783998
0.766868
0.749518
0.73194
0.714136
0.696102
0.67785
0.992264
0.976729
0.96112
0.945468
0.929766
0.913989
0.89812
0.882142
0.86604
0.849799
0.833403
0.816839
0.800093
0.783156
0.766018
0.748673
0.731118
0.713353
0.695378
0.677205
0.992232
0.976633
0.960961
0.945247
0.929484
0.913648
0.897722
0.88169
0.865538
0.849251
0.832816
0.816219
0.799449
0.782496
0.765352
0.748014
0.730477
0.712745
0.694819
0.676708
0.992208
0.976562
0.960843
0.945082
0.929273
0.913393
0.897425
0.881353
0.865165
0.848845
0.83238
0.81576
0.798972
0.782008
0.764862
0.747528
0.730007
0.7123
0.694411
0.676348
0.992192
0.976515
0.960764
0.944973
0.929133
0.913224
0.897228
0.88113
0.864917
0.848575
0.832092
0.815456
0.798657
0.781686
0.764538
0.747209
0.729698
0.712009
0.694146
0.676115
0.992183
0.976491
0.960726
0.944918
0.929063
0.91314
0.89713
0.881019
0.864794
0.848441
0.831949
0.815305
0.798501
0.781527
0.764378
0.747051
0.729546
0.711865
0.694017
0.676007
0.694355
0.668052
0.641108
0.612596
0.583254
0.553703
0.524212
0.495052
0.466502
0.438834
0.690893
0.663586
0.636857
0.609741
0.581869
0.553769
0.525721
0.497932
0.470655
0.444177
0.68605
0.659383
0.633486
0.607686
0.581111
0.554206
0.527325
0.50066
0.474426
0.448845
0.681472
0.655831
0.630791
0.606021
0.580522
0.554632
0.528732
0.503007
0.477641
0.452832
0.677467
0.652785
0.62856
0.604629
0.580029
0.555007
0.52994
0.505009
0.480383
0.456302
0.674
0.650178
0.626703
0.603468
0.579619
0.555339
0.530982
0.506726
0.482712
0.459071
0.671021
0.647955
0.625142
0.602488
0.579266
0.55562
0.531874
0.508202
0.484739
0.461636
0.668482
0.646069
0.623821
0.601649
0.578951
0.555847
0.532629
0.509465
0.486485
0.463826
0.666331
0.644469
0.622692
0.60092
0.578661
0.556021
0.53326
0.510539
0.487982
0.465718
0.664513
0.643112
0.621721
0.600276
0.578385
0.556141
0.533777
0.511445
0.489262
0.467349
0.66298
0.641958
0.620877
0.599699
0.578114
0.55621
0.534191
0.512199
0.490347
0.46875
0.661691
0.640975
0.620137
0.599172
0.577843
0.556228
0.534508
0.512816
0.49126
0.469945
0.660612
0.640135
0.619483
0.598685
0.577566
0.556197
0.534737
0.51331
0.492016
0.470955
0.659714
0.639414
0.618899
0.598227
0.57728
0.556119
0.534884
0.513689
0.49263
0.471798
0.658972
0.638795
0.618371
0.597792
0.57698
0.555994
0.534952
0.513962
0.493112
0.472487
0.658368
0.638261
0.61789
0.597372
0.576666
0.555823
0.534947
0.514136
0.493472
0.473034
0.657887
0.637801
0.617448
0.596963
0.576334
0.555606
0.53487
0.514215
0.493716
0.473446
0.657518
0.63741
0.617042
0.596565
0.575987
0.555348
0.534727
0.514205
0.493852
0.47373
0.657245
0.637068
0.616655
0.596164
0.575615
0.555043
0.534517
0.51411
0.493884
0.473898
0.65708
0.636781
0.616265
0.595711
0.575154
0.554622
0.534172
0.513868
0.493765
0.47391
)
;

boundaryField
{
    bottom
    {
        type            symmetryPlane;
    }
    right
    {
        type            fixedValue;
        value           uniform 0;
    }
    top
    {
        type            symmetryPlane;
    }
    left
    {
        type            fixedValue;
        value           uniform 1;
    }
    cylinder
    {
        type            zeroGradient;
    }
    defaultFaces
    {
        type            empty;
    }
}


// ************************************************************************* //
