/*--------------------------------*- C++ -*----------------------------------*\
| =========                 |                                                 |
| \\      /  F ield         | OpenFOAM: The Open Source CFD Toolbox           |
|  \\    /   O peration     | Version:  4.1                                   |
|   \\  /    A nd           | Web:      www.OpenFOAM.org                      |
|    \\/     M anipulation  |                                                 |
\*---------------------------------------------------------------------------*/
FoamFile
{
    version     2.0;
    format      ascii;
    class       surfaceScalarField;
    location    "2";
    object      phi;
}
// * * * * * * * * * * * * * * * * * * * * * * * * * * * * * * * * * * * * * //

dimensions      [0 3 -1 0 0 0 0];

internalField   nonuniform List<scalar> 
3890
(
0.000604692
-0.00439694
0.00379224
0.00198636
-0.0118544
0.0104727
0.00381552
-0.0176382
0.0158091
0.00584384
-0.021704
0.0196757
0.0079069
-0.0242744
0.0222114
0.00991228
-0.0256822
0.0236768
0.0118172
-0.0262634
0.0243585
0.0136086
-0.0263042
0.0245128
0.0152983
-0.026036
0.0243463
-0.0256578
0.0240586
0.0168974
0.000644921
-0.00504186
0.00206515
-0.0132746
0.0038887
-0.0194618
0.00585388
-0.0236692
0.00780178
-0.0262223
0.00965518
-0.0275356
0.0113909
-0.0279991
0.0130164
-0.0279298
0.01455
-0.0275696
-0.0271015
0.0159937
0.000679281
-0.00572114
0.0021203
-0.0147156
0.00391215
-0.0212536
0.00578529
-0.0255423
0.00759093
-0.028028
0.00926853
-0.0292132
0.0108107
-0.0295413
0.0122355
-0.0293545
0.0135655
-0.0288997
-0.0283467
0.0148108
0.000705895
-0.00642703
0.00214667
-0.0161564
0.00387849
-0.0229854
0.00563071
-0.0272945
0.00726997
-0.0296672
0.00875517
-0.0306984
0.0100954
-0.0308814
0.0113195
-0.0305787
0.0124575
-0.0300376
-0.0294158
0.0135265
0.00072284
-0.00714987
0.00213954
-0.0175731
0.00378139
-0.0246273
0.005384
-0.0288971
0.00683388
-0.0311171
0.00811056
-0.0319751
0.00923865
-0.0320095
0.0102569
-0.0315969
0.0112003
-0.030981
-0.030305
0.0120895
0.000728283
-0.00787816
0.00209504
-0.0189398
0.0036166
-0.0261488
0.00504257
-0.0303231
0.00628305
-0.0323576
0.00733842
-0.0330304
0.00824717
-0.0329183
0.00905531
-0.0324051
0.00980068
-0.0317264
-0.0310099
0.0105056
0.000720542
-0.0085987
0.00201019
-0.0202295
0.00338195
-0.0275206
0.00460689
-0.0315481
0.00562127
-0.033372
0.00644556
-0.0338547
0.00712993
-0.0336027
0.00772528
-0.0330004
0.00827042
-0.0322715
-0.0315275
0.00878795
0.000698213
-0.00929691
0.00188325
-0.0214145
0.00307763
-0.028715
0.00408063
-0.0325511
0.00485603
-0.0341474
0.00544271
-0.0344414
0.00589988
-0.0340598
0.00628089
-0.0333814
0.00662382
-0.0326144
-0.0318542
0.00695058
0.000660277
-0.00995719
0.00171382
-0.0224681
0.00270611
-0.0297073
0.00347026
-0.0333152
0.00399768
-0.0346748
0.00434335
-0.0347871
0.00457268
-0.0342892
0.00473937
-0.0335481
0.00487946
-0.0327545
-0.0319876
0.00501286
0.000606199
-0.0105634
0.00150295
-0.0233648
0.00227201
-0.0304763
0.00278459
-0.0338278
0.00305876
-0.034949
0.00316277
-0.0348911
0.00316538
-0.0342918
0.00311887
-0.0335016
0.00305641
-0.0326921
0.00299735
-0.0319286
0.000257464
-0.000257463
0.00110072
-0.000843253
0.00248671
-0.00138599
0.00432455
-0.00183784
0.00650752
-0.00218297
0.00893167
-0.00242415
0.0115057
-0.00257401
0.0141547
-0.00264898
0.0168195
-0.00266481
-0.00262906
0.0194485
0.000266397
-0.000523861
0.00112431
-0.00170116
0.00252666
-0.00278834
0.0043777
-0.00368888
0.0065686
-0.00437387
0.00899478
-0.00485034
0.0115651
-0.00514436
0.0142056
-0.00528941
0.0168582
-0.00531749
-0.00524443
0.0194736
0.00028296
-0.00080682
0.00117092
-0.00258912
0.00260458
-0.004222
0.00448108
-0.00556538
0.00668719
-0.00657998
0.00911665
-0.0072798
0.0116788
-0.00770652
0.0143014
-0.00791204
0.0169292
-0.00794528
-0.00783161
0.0195164
0.000307513
-0.00111433
0.00123906
-0.00352067
0.00271778
-0.00570073
0.00462976
-0.00747736
0.00685556
-0.00880577
0.00928689
-0.00971113
0.0118343
-0.010254
0.0144287
-0.0105064
0.0170187
-0.0105353
-0.0103768
0.0195639
0.000339346
-0.00145368
0.00132639
-0.00450771
0.00286112
-0.00723546
0.00481511
-0.00943135
0.00706121
-0.0110519
0.00948926
-0.0121392
0.0120122
-0.0127769
0.0145658
-0.01306
0.0171041
-0.0130737
-0.0128657
0.019593
0.000377438
-0.00183112
0.00142936
-0.00555964
0.00302717
-0.00883326
0.0050249
-0.0114291
0.00728679
-0.0133138
0.00970142
-0.0145538
0.0121858
-0.0152613
0.014683
-0.0155571
0.0171545
-0.0155452
-0.0152839
0.0195727
0.000420401
-0.00225152
0.0015432
-0.00668244
0.00320621
-0.0104963
0.0052436
-0.0134665
0.0075108
-0.015581
0.00989638
-0.0169394
0.0123235
-0.0176884
0.0147447
-0.0179783
0.0171323
-0.0179329
-0.0176189
0.0194673
0.000466503
-0.00271802
0.00166207
-0.00787801
0.00338659
-0.0122208
0.00545292
-0.0155328
0.00770852
-0.0178366
0.010044
-0.0192748
0.0123908
-0.0200352
0.0147132
-0.0203007
0.0169966
-0.0202163
-0.0198575
0.0192352
0.0005138
-0.00323182
0.00177952
-0.00914373
0.00355558
-0.0139969
0.00563307
-0.0176103
0.00785298
-0.0200565
0.0101103
-0.0215321
0.0123476
-0.0222725
0.0145442
-0.0224973
0.0167042
-0.0223763
-0.0219833
0.01883
0.000560419
0.00188939
0.00370159
0.00576697
0.00792188
0.0100666
0.0121525
0.014168
0.016138
0.0182134
0.0208885
-0.00143996
0.0221428
-0.00125429
0.0232293
-0.00108652
0.024166
-0.000936697
0.0249696
-0.00080359
0.0256554
-0.00068586
0.0262375
-0.000582033
0.0267281
-0.000490585
0.0271381
-0.000410063
0.0274773
-0.000339146
0.0277539
-0.000276651
0.0279754
-0.000221516
0.0281482
-0.000172787
0.0282778
-0.000129592
0.0283689
-9.11252e-05
0.0284255
-5.66048e-05
0.0284507
-2.51349e-05
0.0284471
3.62119e-06
0.0284214
2.5616e-05
4.64777e-05
0.0208869
-0.00285325
0.0221224
-0.00248977
0.0231964
-0.00216051
0.0241252
-0.00186547
0.0249243
-0.0016027
0.0256083
-0.00136991
0.0261906
-0.00116436
0.0266832
-0.000983141
0.0270966
-0.000823441
0.0274401
-0.000682696
0.0277221
-0.000558592
0.0279496
-0.00044905
0.028129
-0.000352193
0.0282657
-0.000266312
0.0283644
-0.000189846
0.0284292
-0.000121349
0.0284634
-5.93179e-05
0.0284667
2.59056e-07
0.0284495
4.28784e-05
8.52403e-05
0.0208785
-0.00421536
0.0220778
-0.00368902
0.0231275
-0.00321024
0.0240409
-0.0027789
0.0248314
-0.00239316
0.025512
-0.00205054
0.0260951
-0.00174743
0.0265917
-0.00147976
0.0270118
-0.00124357
0.0273643
-0.00103516
0.0276569
-0.000851218
0.0278966
-0.000688712
0.0280893
-0.000544908
0.0282403
-0.000417309
0.0283541
-0.000303628
0.0284344
-0.000201711
0.0284845
-0.000109351
0.0285078
-2.30911e-05
0.0285051
4.56014e-05
0.000108356
0.0208523
-0.00550373
0.0219998
-0.00483654
0.023015
-0.00422539
0.0239065
-0.00367045
0.0246848
-0.00317148
0.025361
-0.00272671
0.0259457
-0.00233216
0.0264489
-0.00198296
0.0268796
-0.00167424
0.0272458
-0.00140139
0.0275548
-0.00116021
0.027813
-0.00094685
0.0280259
-0.000757812
0.0281984
-0.000589884
0.0283349
-0.000440128
0.0284391
-0.000305849
0.0285143
-0.000184527
0.0285645
-7.3322e-05
0.0285855
2.462e-05
0.000107095
0.0207891
-0.00669985
0.0218726
-0.00592002
0.0228453
-0.00519806
0.0237103
-0.00453551
0.0244745
-0.00393568
0.0251465
-0.00339867
0.025735
-0.00292064
0.0262483
-0.00249629
0.0266942
-0.00212015
0.0270798
-0.00178697
0.0274114
-0.00149186
0.0276949
-0.00123033
0.0279353
-0.000998241
0.0281372
-0.000791786
0.0283046
-0.00060749
0.0284409
-0.00044218
0.0285493
-0.000292926
0.0286328
-0.000156832
0.0286874
-2.99105e-05
7.45832e-05
0.0206627
-0.00778978
0.0216732
-0.00693058
0.0225986
-0.00612341
0.0234352
-0.00537216
0.0241858
-0.00468625
0.024856
-0.00406886
0.0254522
-0.00351681
0.0259807
-0.00302485
0.0264479
-0.0025873
0.0268595
-0.00219856
0.0272209
-0.00185332
0.0275372
-0.00154665
0.0278129
-0.00127394
0.028052
-0.0010309
0.0282581
-0.00081358
0.0284343
-0.000618355
0.0285833
-0.000441958
0.028708
-0.000281527
0.028813
-0.000134925
6.41537e-06
0.0204428
-0.00876521
0.0213749
-0.00786274
0.0222513
-0.00699977
0.0230608
-0.00618165
0.0238014
-0.00542685
0.0244753
-0.0047428
0.025086
-0.00412748
0.0256374
-0.00357623
0.0261337
-0.00308369
0.0265795
-0.00264434
0.026979
-0.00225283
0.0273364
-0.00190405
0.0276557
-0.00159316
0.0279403
-0.00131555
0.0281936
-0.00106689
0.0284184
-0.000843175
0.0286172
-0.000640732
0.0287919
-0.000456224
0.0289441
-0.000287071
-0.000123759
0.0200965
-0.00962657
0.0209507
-0.00871693
0.0217808
-0.00782988
0.0225673
-0.00696815
0.0233037
-0.00616323
0.0239885
-0.00542762
0.024622
-0.00476092
0.0252053
-0.00415952
0.0257405
-0.00361888
0.0262302
-0.00313406
0.0266775
-0.0027001
0.0270855
-0.00231214
0.0274578
-0.00196538
0.0277973
-0.00165509
0.0281071
-0.00137671
0.0283898
-0.0011259
0.0286477
-0.000898621
0.0288826
-0.000691128
0.0290963
-0.000500694
-0.00031291
0.0195765
-0.010373
0.0203684
-0.0095088
0.0211676
-0.00862914
0.0219458
-0.00774632
0.0226914
-0.00690883
0.0233988
-0.00613502
0.0240654
-0.00542753
0.0246902
-0.00478437
0.0252734
-0.00420201
0.0258157
-0.00367642
0.0263191
-0.00320348
0.0267859
-0.00277891
0.0272188
-0.00239828
0.0276207
-0.002057
0.0279944
-0.00175042
0.0283425
-0.00147401
0.0286673
-0.00122342
0.0289706
-0.000994452
0.029254
-0.000784075
-0.000570659
0.0188918
-0.0110514
0.0196203
-0.0102373
0.0203764
-0.00938526
0.0211464
-0.00851632
0.0219093
-0.00767173
0.0226516
-0.00687725
0.0233659
-0.00614184
0.0240479
-0.00546637
0.0246949
-0.004849
0.0253057
-0.00428725
0.0258806
-0.00377835
0.0264208
-0.00331916
0.0269285
-0.00290599
0.0274062
-0.00253468
0.0278565
-0.00220073
0.028282
-0.00189953
0.0286852
-0.00162656
0.029068
-0.00137732
0.0294332
-0.00114927
-0.000914968
0.0316792
-0.00968452
-0.0330461
0.0306112
-0.00916937
0.0297449
-0.00851892
0.0290625
-0.00783393
0.02854
-0.00714924
0.028148
-0.00648525
0.0278601
-0.00585395
0.0276541
-0.00526034
0.0275114
-0.00470627
0.0274167
-0.00419261
0.0273581
-0.00371967
0.0273258
-0.00328693
0.0273127
-0.00289284
0.0273129
-0.00253493
0.0273222
-0.00221004
0.0273373
-0.00191461
0.0273558
-0.001645
0.0273759
-0.00139747
0.0273976
-0.00117099
-0.000938155
0.0323719
-0.00856774
-0.0334886
0.0313775
-0.00817501
0.0305376
-0.007679
0.0298411
-0.00713742
0.0292767
-0.00658489
0.0288294
-0.00603792
0.0284814
-0.00550594
0.0282154
-0.00499435
0.0280158
-0.00450668
0.027869
-0.00404583
0.0277636
-0.00361421
0.02769
-0.00321332
0.0276406
-0.00284343
0.0276093
-0.00250363
0.0275913
-0.00219207
0.027583
-0.00190628
0.0275815
-0.00164351
0.0275848
-0.00140076
0.0275916
-0.00117782
-0.000945774
0.0327539
-0.00756249
-0.0337592
0.031854
-0.00727506
0.031074
-0.00689902
0.0304102
-0.00647362
0.0298538
-0.00602849
0.0293945
-0.00557867
0.0290208
-0.00513218
0.0287207
-0.00469424
0.0284829
-0.00426894
0.0282971
-0.00386005
0.028154
-0.00347102
0.0280451
-0.00310448
0.0279636
-0.00276189
0.0279035
-0.00244353
0.02786
-0.0021486
0.0278293
-0.00187561
0.0278084
-0.00162262
0.0277949
-0.00138725
0.027787
-0.00116987
-0.000941151
0.0330075
-0.00665703
-0.033913
0.0321913
-0.00645881
0.0314724
-0.00618017
0.0308492
-0.00585037
0.0303147
-0.00549406
0.0298611
-0.00512508
0.02948
-0.00475109
0.0291631
-0.00437732
0.0289024
-0.00400819
0.0286901
-0.00364781
0.0285192
-0.00330005
0.0283828
-0.00296808
0.0282749
-0.00265404
0.0281903
-0.00235896
0.0281246
-0.00208285
0.0280739
-0.00182496
0.0280354
-0.00158405
0.0280064
-0.0013583
0.0279852
-0.00114865
-0.000926019
0.0331802
-0.00584683
-0.0339904
0.0324422
-0.00572085
0.0317819
-0.00551984
0.0311992
-0.00526773
0.0306902
-0.00498499
0.030249
-0.00468386
0.0298696
-0.00437167
0.029546
-0.00405372
0.0292724
-0.00373459
0.0290431
-0.00341856
0.0288527
-0.00310962
0.0286957
-0.00281115
0.0285673
-0.00252563
0.0284629
-0.00225456
0.0283786
-0.00199849
0.0283109
-0.00175724
0.0282569
-0.0015301
0.0282144
-0.00131576
0.0281814
-0.00111563
-0.000901143
0.0332929
-0.00512701
-0.0340127
0.0326276
-0.00505556
0.0320228
-0.00491505
0.0314802
-0.00472515
0.030998
-0.00450281
0.0305727
-0.00425852
0.0302001
-0.00399906
0.029876
-0.00372966
0.0295963
-0.00345489
0.0293568
-0.00317905
0.0291533
-0.00290609
0.0289816
-0.00263941
0.0288376
-0.00238166
0.0287176
-0.00213457
0.0286182
-0.00189905
0.0285362
-0.00167533
0.0284693
-0.00146313
0.028415
-0.00126152
0.0283717
-0.0010723
-0.000867695
0.03336
-0.00448858
-0.0339984
0.032761
-0.00445665
0.0322083
-0.00436231
0.0317046
-0.0042215
0.03125
-0.00404817
0.0308427
-0.00385118
0.0304802
-0.00363658
0.0301598
-0.00340931
0.0298787
-0.0031738
0.0296339
-0.00293417
0.029422
-0.00269426
0.02924
-0.0024574
0.0290846
-0.00222622
0.0289526
-0.0020026
0.0288412
-0.00178765
0.0287478
-0.00158189
0.02867
-0.00138535
0.0286059
-0.00119743
0.0285538
-0.00102018
-0.000826894
0.0333931
-0.00392151
-0.0339602
0.0328538
-0.00391728
0.0323489
-0.00385745
0.0318823
-0.00375487
0.031455
-0.00362094
0.0310669
-0.00346302
0.0307167
-0.0032864
0.030403
-0.00309557
0.0301238
-0.00289464
0.0298771
-0.00268751
0.0296607
-0.00247779
0.0294719
-0.00226865
0.0293083
-0.00206264
0.0291674
-0.00186167
0.0290467
-0.00166698
0.0289441
-0.00147927
0.0288575
-0.00129878
0.0287853
-0.00112517
0.0287258
-0.00096067
-0.000779859
0.0334017
-0.00341614
-0.0339071
0.0329149
-0.00343051
0.0324534
-0.00339595
0.0320213
-0.00332279
0.0316207
-0.00322027
0.0312521
-0.00309444
0.0309155
-0.0029498
0.0306103
-0.00279034
0.0303354
-0.00261979
0.0300896
-0.00244171
0.0298713
-0.00225943
0.0296785
-0.00207591
0.0295094
-0.00189356
0.029362
-0.00171426
0.0292343
-0.0015393
0.0291245
-0.00136947
0.0290309
-0.00120519
0.028952
-0.00104628
0.0288864
-0.000895059
-0.000727615
0.0333929
-0.00296363
-0.0338454
0.0329521
-0.00298972
0.0325294
-0.00297322
0.032129
-0.00292243
0.0317535
-0.00284476
0.0314042
-0.00274513
0.0310817
-0.00262733
0.0307862
-0.00249479
0.0305172
-0.00235083
0.0302741
-0.00219864
0.0300559
-0.00204122
0.0298613
-0.00188127
0.0296888
-0.00172107
0.0295369
-0.00156237
0.0294041
-0.00140646
0.0292888
-0.00125419
0.0291897
-0.00110607
0.0291055
-0.000962056
0.0290349
-0.000824478
-0.000671086
0.0333725
-0.00255609
-0.03378
0.0329715
-0.00258877
0.0325831
-0.00258478
0.0322114
-0.00255074
0.0318592
-0.00249259
0.0315284
-0.00241428
0.03122
-0.00231891
0.0309346
-0.00220943
0.0306725
-0.0020887
0.0304334
-0.00195953
0.0302167
-0.00182459
0.0300218
-0.00168631
0.0298475
-0.00154676
0.0296927
-0.00140757
0.0295562
-0.00126998
0.0294368
-0.00113485
0.0293335
-0.00100272
0.0292451
-0.00087365
0.0291705
-0.000749913
-0.000611084
0.033345
-0.00218661
-0.0337144
0.0329783
-0.00222207
0.0326198
-0.00222631
0.0322737
-0.00220462
0.0319428
-0.00216169
0.0316291
-0.00210064
0.0313342
-0.00202401
0.0310591
-0.00193425
0.0308042
-0.00183381
0.0305698
-0.00172512
0.0303557
-0.00161051
0.0301615
-0.00149213
0.0299866
-0.00137182
0.0298301
-0.00125108
0.0296912
-0.00113106
0.0295689
-0.00101257
0.0294624
-0.000896184
0.0293707
-0.000782011
0.029293
-0.000672208
-0.000548311
0.0333139
-0.00184908
-0.0336514
0.0329764
-0.00188454
0.0326438
-0.00189376
0.0323201
-0.00188095
0.0320082
-0.00184978
0.0317103
-0.00180269
0.031428
-0.00174171
0.0311626
-0.00166886
0.030915
-0.00158617
0.0306856
-0.00149573
0.0304746
-0.00139954
0.0302819
-0.00129946
0.0301072
-0.0011971
0.0299499
-0.00109381
0.0298095
-0.000990607
0.0296852
-0.000888263
0.0295763
-0.000787321
0.0294822
-0.000687928
0.0294021
-0.000592072
-0.000483364
0.033282
-0.00153812
-0.033593
0.032969
-0.00157155
0.0326586
-0.0015833
0.0323543
-0.00157669
0.0320591
-0.00155453
0.0317751
-0.00151872
0.0315042
-0.00147084
0.0312479
-0.00141251
0.0310071
-0.00134544
0.0307827
-0.00127133
0.0305751
-0.0011919
0.0303843
-0.0011087
0.0302104
-0.00102315
0.0300529
-0.000936375
0.0299116
-0.000849303
0.029786
-0.000762612
0.0296755
-0.000676803
0.0295796
-0.000592037
0.0294976
-0.000510088
-0.000416743
0.0332514
-0.001249
-0.0335405
0.0329588
-0.00127894
0.0326668
-0.00129138
0.032379
-0.00128887
0.0320981
-0.00127357
0.0318262
-0.00124687
0.0315654
-0.00121001
0.0313171
-0.00116427
0.0310827
-0.00111101
0.030863
-0.00105163
0.0306586
-0.000987524
0.0304699
-0.00092001
0.030297
-0.000850243
0.0301398
-0.000779189
0.0299982
-0.000707621
0.0298717
-0.000636129
0.02976
-0.00056515
0.0296628
-0.000494842
0.0295795
-0.000426729
-0.000348858
0.0332234
-0.000977488
-0.0334949
0.0329474
-0.00100294
0.0326707
-0.0010147
0.0323966
-0.0010147
0.0321275
-0.00100454
0.0318659
-0.000985241
0.0316136
-0.000957726
0.0313723
-0.000922979
0.0311434
-0.00088206
0.0309278
-0.000836081
0.0307265
-0.000786148
0.0305397
-0.000733309
0.030368
-0.000678488
0.0302113
-0.000622465
0.0300695
-0.000565866
0.0299426
-0.000509172
0.0298302
-0.000452748
0.029732
-0.000396732
0.0296477
-0.000342371
-0.000280044
0.0331993
-0.00071987
-0.0334569
0.0329365
-0.00074015
0.032672
-0.000750198
0.0324088
-0.000751462
0.0321494
-0.000745097
0.031896
-0.000731839
0.0316506
-0.000712347
0.0314149
-0.000687345
0.0311905
-0.000657619
0.0309784
-0.000624
0.0307796
-0.000587318
0.0305946
-0.000548356
0.030424
-0.000507811
0.0302678
-0.000466268
0.0301261
-0.0004242
0.0299989
-0.000381975
0.029886
-0.00033987
0.0297873
-0.000298004
0.0297022
-0.000257308
-0.000210573
0.03318
-0.000472933
-0.0334269
0.0329274
-0.000487521
0.0326722
-0.000495004
0.0324172
-0.000496512
0.032165
-0.000492879
0.0319178
-0.000484611
0.0316776
-0.000472143
0.0314462
-0.000455956
0.0312251
-0.000436575
0.0310157
-0.000414556
0.0308188
-0.000390453
0.0306353
-0.000364787
0.0304655
-0.000338022
0.0303098
-0.000310549
0.0301682
-0.000282684
0.0300409
-0.000254674
0.0299278
-0.000226706
0.0298286
-0.000198873
0.0297431
-0.000171767
-0.000140668
0.0331669
-0.000233889
-0.0334059
0.0329214
-0.000242037
0.0326725
-0.000246135
0.032423
-0.000247048
0.0321755
-0.000245373
0.0319323
-0.000241388
0.0316955
-0.000235293
0.0314668
-0.000227326
0.031248
-0.000217754
0.0310403
-0.000206854
0.0308447
-0.000194902
0.0306621
-0.000182158
0.030493
-0.000168853
0.0303376
-0.000155182
0.0301962
-0.000141303
0.0300689
-0.000127341
0.0299555
-0.000113381
0.0298562
-9.95036e-05
0.0297703
-8.58742e-05
-7.06362e-05
0.0331617
-0.0333956
0.0329197
0.0326736
0.0324265
0.0321811
0.0319398
0.0317045
0.0314771
0.0312594
0.0310525
0.0308576
0.0306755
0.0305066
0.0303514
0.0302101
0.0300828
0.0299694
0.0298699
0.029784
0.0315428
0.00270483
-0.0312503
0.0318454
0.00471034
0.0321442
0.00665173
0.032425
0.00850712
0.0326715
0.0102592
0.0328661
0.0118949
0.0329886
0.013404
0.0330383
0.0147611
0.032965
0.016067
0.0168163
0.0309066
0.00243584
-0.0306376
0.0312083
0.00440858
0.0315345
0.00632554
0.0318741
0.00816754
0.0322148
0.00991847
0.0325449
0.0115648
0.032847
0.0131019
0.0331241
0.014484
0.0333145
0.0158765
0.0166422
0.0303452
0.00219583
-0.0301052
0.0306385
0.00411528
0.0309769
0.0059872
0.0313517
0.0077927
0.0317532
0.00951698
0.0321727
0.0111453
0.0325944
0.0126802
0.033017
0.0140615
0.0334108
0.0154827
0.0162938
0.0298606
0.00198223
-0.029647
0.0301434
0.00383244
0.0304881
0.00564253
0.0308875
0.0073933
0.0313331
0.00907138
0.0318174
0.0106609
0.0323287
0.0121689
0.0328609
0.0135293
0.0334125
0.0149311
0.0157933
0.0294426
0.00178956
-0.02925
0.0297155
0.00355956
0.0300638
0.00529419
0.0304815
0.00697561
0.0309612
0.00859168
0.0314961
0.010126
0.0320779
0.0115871
0.0326955
0.0129116
0.0333606
0.0142661
0.0151635
0.029081
0.00161404
-0.0289054
0.0293452
0.00329527
0.0296954
0.00494399
0.0301265
0.00654459
0.0306322
0.008086
0.0312059
0.00955224
0.0318418
0.0109512
0.0325263
0.0122272
0.0332758
0.0135166
0.0144266
0.0287673
0.00145451
-0.0286078
0.0290241
0.00303849
0.0293752
0.00459286
0.0298162
0.00610355
0.0303419
0.00756031
0.0309459
0.00894824
0.0316238
0.0102733
0.0323618
0.0114892
0.0331756
0.0127028
0.0136038
0.0284943
0.00130784
-0.0283477
0.0287449
0.00278792
0.0290966
0.0042412
0.0295454
0.00565473
0.0300868
0.00701895
0.0307147
0.00832034
0.0314254
0.00956259
0.032206
0.0107086
0.0330694
0.0118394
0.0127131
0.0282565
0.00117153
-0.0281202
0.028502
0.00254245
0.0288541
0.00388916
0.0293091
0.00519972
0.0298628
0.00646516
0.0305098
0.00767343
0.0312462
0.00882611
0.0320608
0.00989393
0.0329629
0.0109374
0.0117689
0.0280495
0.00104367
-0.0279216
0.0282908
0.00230115
0.0286431
0.00353682
0.0291031
0.00473973
0.0296669
0.00590144
0.030329
0.00701133
0.0310858
0.00806928
0.0319273
0.00905244
0.0328594
0.0100052
0.0107829
0.0278698
0.000922733
-0.0277489
0.0281077
0.00206326
0.0284603
0.00318423
0.0289243
0.00427568
0.029496
0.00532972
0.0301703
0.00633705
0.0309433
0.00729632
0.031806
0.00818975
0.0327616
0.00904956
0.00976448
0.0277146
0.000807506
-0.0275994
0.0279497
0.00182816
0.0283025
0.00283142
0.0287699
0.00380829
0.0293481
0.00475152
0.0300322
0.005653
0.0308179
0.00651058
0.0316972
0.00731044
0.0326711
0.00807569
0.00872113
0.0275817
0.000696998
-0.0274712
0.0278145
0.00159533
0.0281675
0.00247839
0.0286377
0.00333815
0.0292211
0.00416806
0.029913
0.00496109
0.0307089
0.00571471
0.0316012
0.00641814
0.0325891
0.0070878
0.00765881
0.0274692
0.00059039
-0.0273626
0.0277001
0.00136436
0.0280534
0.00212514
0.0285258
0.00286573
0.0291135
0.00358031
0.0298117
0.00426289
0.0306156
0.00491084
0.031518
0.00551579
0.0325165
0.00608928
0.00658231
0.0273755
0.000486997
-0.0272721
0.0276049
0.00113489
0.0279584
0.00177168
0.0284327
0.00239141
0.029024
0.00298906
0.0297272
0.00355967
0.0305373
0.00410071
0.0314473
0.00460579
0.0324537
0.00508288
0.00549553
0.0272993
0.000386247
-0.0271985
0.0275276
0.000906614
0.0278813
0.00141798
0.0283572
0.00191548
0.0289513
0.00239498
0.0296585
0.00285249
0.0304734
0.00328579
0.0313891
0.0036901
0.0324011
0.00407088
0.00440168
0.0272395
0.000287643
-0.0271409
0.0274669
0.000679262
0.0278208
0.00106403
0.0282981
0.00143821
0.0288945
0.00179862
0.0296047
0.00214224
0.0304232
0.00246729
0.0313429
0.0027704
0.0323586
0.00305518
0.00330335
0.0271952
0.000190707
-0.0270983
0.0274219
0.000452577
0.0277761
0.000709785
0.0282546
0.000959807
0.0288527
0.00120046
0.0295652
0.00142971
0.0303862
0.00164633
0.0313085
0.00184813
0.0323262
0.00203742
0.00220264
0.0271653
9.50949e-05
-0.0270697
0.0273917
0.000226235
0.0277463
0.000355118
0.0282258
0.000480348
0.0288254
0.000600817
0.0295397
0.000715487
0.0303623
0.000823732
0.031286
0.000924449
0.0323045
0.00101887
0.00110125
0.0271493
-0.0270542
0.0273756
0.0277307
0.028211
0.0288118
0.0295273
0.0303511
0.0312755
0.0322944
0.0148486
0.0231325
-0.0215134
-0.0164677
0.0130785
0.0236786
-0.0219085
0.0112534
0.0243515
-0.0225265
0.00937357
0.0251169
-0.0232371
0.00744547
0.0259221
-0.023994
0.00549874
0.0266452
-0.0246984
0.00360052
0.0269315
-0.0250333
0.0018827
0.0259235
-0.0242057
0.000571604
0.0218356
-0.0205245
0.011364
-0.0107924
0.0132943
0.0247546
-0.0149164
0.0116556
0.0253172
0.00998303
0.0260241
0.00826686
0.0268331
0.00650927
0.0276797
0.00474172
0.0284127
0.0030384
0.0286348
0.00153413
0.0274278
0.000435397
0.0229343
0.0117994
0.0117355
0.0262311
-0.013212
0.0102218
0.0268309
0.00868141
0.0275645
0.00711274
0.0284018
0.0055207
0.0292717
0.00393849
0.0299949
0.00244352
0.0301298
0.00116894
0.0287024
0.00029499
0.0238083
0.0120944
0.010079
0.0275626
-0.0114105
0.00870949
0.0282004
0.00731617
0.0289579
0.00590456
0.0298134
0.00448631
0.03069
0.00309975
0.0313815
0.0018258
0.0314038
0.000794365
0.0297338
0.000153724
0.0244489
0.0122481
0.00832579
0.0287393
-0.0095025
0.00711623
0.02941
0.00588599
0.0301881
0.00464519
0.0310542
0.00341299
0.0319222
0.00223452
0.03256
0.00119344
0.0324449
0.00041475
0.0305125
1.71467e-05
0.0248465
0.0122653
0.00649333
0.029747
-0.00750107
0.00545722
0.0304461
0.00440352
0.0312418
0.00334647
0.0321112
0.0023124
0.0329562
0.00135312
0.0335192
0.000555108
0.0332429
1.17507e-05
0.0310559
-0.000123234
0.0249815
0.012142
0.00460437
0.0305756
-0.00543298
0.00375117
0.0312993
0.00288475
0.0321082
0.00202335
0.0329726
0.00119974
0.0337798
0.000470547
0.0342484
-7.9795e-05
0.0337932
-0.000318954
0.031295
-0.000240934
0.0249035
0.0119011
0.00268233
0.0312187
-0.00332542
0.00201905
0.0319626
0.00134867
0.0327786
0.000693697
0.0336276
9.0812e-05
0.0343827
-0.000394471
0.0347337
-0.000668829
0.0340676
-0.000654708
0.0312809
-0.000351218
0.0246
0.0115499
0.000747685
0.0316783
-0.00120721
0.000282875
0.0324274
-0.000181465
0.033243
-0.000624811
0.0340709
-0.0009974
0.0347553
-0.00123175
0.0349681
-0.00124424
0.0340801
-0.000968537
0.0310052
-0.000450492
0.0240819
0.0110994
-0.00117337
0.000923048
-0.00143803
-0.00169669
-0.00191754
-0.00205331
-0.00203423
-0.00178196
-0.00125312
-0.000535988
0.02151
0.00222983
-0.0237398
0.0192079
0.00230212
0.0168254
0.00238243
0.014354
0.00247142
0.0117844
0.00256964
0.00911471
0.00266965
0.00637219
0.00274253
0.00366554
0.00270665
0.00129945
0.00236608
0.00129945
0.0214038
0.00445377
-0.0236277
0.0191083
0.00459757
0.0167336
0.00475722
0.0142708
0.00493419
0.011711
0.00512944
0.00905269
0.00532795
0.00632312
0.0054721
0.00363214
0.00539763
0.00128783
0.0047104
0.00258728
0.0211897
0.00666524
-0.0234012
0.0189079
0.00687946
0.0165485
0.00711663
0.014103
0.00737964
0.0115629
0.00766955
0.00892758
0.00796326
0.00622586
0.00817382
0.00356869
0.0080548
0.00126038
0.0070187
0.00384766
0.0208655
0.00885721
-0.0230574
0.0186046
0.00914035
0.0162687
0.00945254
0.0138496
0.00979874
0.0113394
0.0101797
0.00873895
0.0105637
0.00607921
0.0108336
0.00347265
0.0106614
0.0012199
0.00927145
0.00506756
0.0204286
0.0110223
-0.0225937
0.0181963
0.0113727
0.0158921
0.0117567
0.0135085
0.0121823
0.0110387
0.0126495
0.00848549
0.0131169
0.00588239
0.0134367
0.00334402
0.0131997
0.00116604
0.0114494
0.00623361
0.0198764
0.0131534
-0.0220075
0.0176799
0.0135692
0.0154156
0.014021
0.0130771
0.0145208
0.0106588
0.0150679
0.00816552
0.0156102
0.00563442
0.0159678
0.00318243
0.0156517
0.00109872
0.0135331
0.00733233
0.0192098
0.0152455
-0.021302
0.0170546
0.0157245
0.0148376
0.016238
0.0125535
0.0168049
0.0101975
0.0174238
0.00777752
0.0180302
0.00533441
0.0184109
0.00298762
0.0179985
0.00101804
0.0155027
0.00835037
0.0184232
0.0173017
-0.0204795
0.016308
0.0178397
0.0141474
0.0183986
0.0119298
0.0190225
0.00964986
0.0197038
0.00731852
0.0203615
0.00498107
0.0207483
0.00275943
0.0202202
0.000924218
0.0173379
0.00927459
0.0175166
0.0193483
-0.0195632
0.0154467
0.0199097
0.0133521
0.0204932
0.0112083
0.0211663
0.00901516
0.0218969
0.00678765
0.022589
0.00457422
0.0229618
0.00249834
0.022296
0.000817838
0.0190184
0.0100924
0.0164967
-0.0186617
0.0144978
0.0124646
0.0103937
0.00829665
0.00618724
0.00411569
0.00220602
0.000699966
0.0273847
-0.000122987
0.0275049
-0.00012029
0.0276175
-0.000112603
0.0277189
-0.000101389
0.0278056
-8.6621e-05
0.0278738
-6.82082e-05
0.0279199
-4.61071e-05
0.0279404
-2.05697e-05
0.0279298
1.06003e-05
0.0278784
5.13995e-05
0.027783
9.53966e-05
0.0276386
0.000144399
0.0274393
0.000199344
0.0271781
0.000261213
0.0268469
0.00033122
0.026436
0.000410868
0.025934
0.000501977
0.0253274
0.000606642
0.0246005
0.000726851
0.000860718
0.0274302
-0.000238543
0.0275426
-0.000232727
0.0276471
-0.00021712
0.0277403
-0.00019457
0.0278186
-0.000164936
0.0278784
-0.000128023
0.0279162
-8.38584e-05
0.0279288
-3.32078e-05
0.0279077
3.16951e-05
0.0278467
0.000112484
0.0277418
0.000200264
0.0275881
0.000298058
0.0273798
0.000407688
0.0271099
0.000531113
0.0267704
0.000670757
0.0263516
0.000829618
0.0258422
0.00101134
0.0252288
0.00122013
0.0244955
0.00146011
0.00172847
0.0275199
-0.000337962
0.027616
-0.000328768
0.027704
-0.000305161
0.0277806
-0.000271173
0.0278423
-0.000226599
0.0278854
-0.000171154
0.0279064
-0.00010483
0.0279024
-2.92119e-05
0.0278604
7.36245e-05
0.0277801
0.00019278
0.0276566
0.00032385
0.0274845
0.00047008
0.0272583
0.000633965
0.026971
0.000818397
0.0266147
0.00102699
0.0261801
0.00126423
0.0256559
0.00153557
0.0250287
0.00184738
0.0242828
0.00220598
0.00261004
0.0276503
-0.000412892
0.0277215
-0.00039991
0.0277845
-0.000368205
0.0278359
-0.000322528
0.0278718
-0.000262567
0.0278888
-0.000188076
0.0278834
-9.95259e-05
0.0278566
-2.36888e-06
0.0277835
0.00014675
0.0276737
0.000302543
0.0275216
0.000476002
0.0273217
0.000669932
0.0270684
0.000887289
0.0267549
0.00113185
0.0263736
0.00140834
0.0259151
0.00172267
0.0253686
0.00208207
0.0247211
0.00249497
0.0239575
0.00296958
0.00351007
0.0278162
-0.000454464
0.0278534
-0.00043713
0.0278825
-0.000397345
0.0279002
-0.000340161
0.027903
-0.000265411
0.027888
-0.000173085
0.0278526
-6.41267e-05
0.0277718
7.84075e-05
0.0276635
0.000255114
0.0275172
0.000448806
0.0273285
0.000664736
0.0270924
0.000906047
0.0268033
0.0011763
0.0264551
0.00148009
0.0260403
0.0018232
0.0255501
0.00221287
0.0249742
0.00265797
0.0243001
0.00316903
0.0235149
0.00375479
0.00443129
0.0280131
-0.000453566
0.0280076
-0.000431577
0.027994
-0.000383804
0.0279686
-0.000314748
0.0279275
-0.000224278
0.0278668
-0.000112441
0.0277871
1.56286e-05
0.0276585
0.000206996
0.0275013
0.000412275
0.0273075
0.000642647
0.027072
0.000900239
0.02679
0.00118805
0.0264561
0.00151014
0.0260644
0.00187179
0.0256079
0.00227974
0.0250784
0.00274235
0.0244665
0.00326985
0.0237606
0.00387492
0.0229512
0.00456424
0.00537497
0.0282328
-0.000399947
0.0281738
-0.000372575
0.0281073
-0.000317317
0.0280289
-0.000236376
0.0279363
-0.00013166
0.0278369
-1.30204e-05
0.0276752
0.000177373
0.0274957
0.000386448
0.0272838
0.000624143
0.0270347
0.000891734
0.0267441
0.00119088
0.0264074
0.00152473
0.0260199
0.00189771
0.025576
0.00231569
0.0250696
0.00278613
0.0244936
0.00331832
0.0238402
0.00392324
0.0230991
0.00461601
0.0222659
0.0053975
0.00633884
0.0284782
-0.000284328
0.0283579
-0.000252359
0.0282299
-0.000189237
0.0280923
-9.87751e-05
0.027948
1.26149e-05
0.0277439
0.000191034
0.0275287
0.000392587
0.0272859
0.000629272
0.0270101
0.000899967
0.0266972
0.00120461
0.0263433
0.00154482
0.0259443
0.00192373
0.025496
0.00234601
0.0249937
0.00281799
0.0244321
0.00334768
0.0238054
0.00394501
0.0231073
0.00462137
0.0223286
0.00539473
0.0214681
0.00625798
0.00732748
0.0287226
-9.51353e-05
0.0285308
-6.06152e-05
0.0283463
-4.72931e-06
0.0281336
0.000113953
0.0278841
0.000262129
0.0276256
0.000449466
0.0273405
0.00067769
0.0270248
0.00094497
0.0266751
0.00124972
0.0262878
0.00159194
0.0258594
0.0019732
0.0253864
0.00239671
0.0248651
0.00286733