/*--------------------------------*- C++ -*----------------------------------*\
| =========                 |                                                 |
| \\      /  F ield         | OpenFOAM: The Open Source CFD Toolbox           |
|  \\    /   O peration     | Version:  4.1                                   |
|   \\  /    A nd           | Web:      www.OpenFOAM.org                      |
|    \\/     M anipulation  |                                                 |
\*---------------------------------------------------------------------------*/
FoamFile
{
    version     2.0;
    format      ascii;
    class       volVectorField;
    location    "2";
    object      U;
}
// * * * * * * * * * * * * * * * * * * * * * * * * * * * * * * * * * * * * * //

dimensions      [0 1 -1 0 0 0 0];

internalField   nonuniform List<vector> 
2000
(
(0.0632365 -0.0521444 -2.15119e-20)
(0.181432 -0.132761 0)
(0.285717 -0.184218 -4.08563e-20)
(0.366795 -0.213852 -2.05858e-20)
(0.424806 -0.226712 3.80576e-20)
(0.463379 -0.227559 5.66659e-20)
(0.487061 -0.220648 -1.72437e-20)
(0.500231 -0.209278 0)
(0.506206 -0.196487 1.70546e-20)
(0.507226 -0.186231 0)
(0.0772217 -0.0544644 1.05318e-20)
(0.21431 -0.134332 -1.11831e-20)
(0.329264 -0.182433 3.97907e-20)
(0.414597 -0.208364 5.9269e-20)
(0.472481 -0.218095 4.9382e-22)
(0.508385 -0.216718 -1.88715e-20)
(0.528242 -0.208461 1.90168e-20)
(0.53731 -0.196435 1.84797e-20)
(0.53936 -0.18353 -1.70547e-20)
(0.536911 -0.172859 -3.38352e-20)
(0.0924981 -0.0553246 -1.10836e-20)
(0.248778 -0.132007 1.03821e-20)
(0.373412 -0.175208 -2.04939e-20)
(0.461631 -0.1967 5.57064e-22)
(0.518167 -0.203175 -1.98262e-20)
(0.550548 -0.19986 -1.94788e-20)
(0.566115 -0.190824 -1.90302e-20)
(0.57092 -0.178938 -1.84799e-20)
(0.569137 -0.166788 -1.87509e-20)
(0.563584 -0.156481 1.81173e-20)
(0.108823 -0.0544368 -2.59301e-22)
(0.284081 -0.125396 1.05813e-20)
(0.417052 -0.162354 0)
(0.506655 -0.178963 -2.08934e-20)
(0.560668 -0.182314 2.02532e-20)
(0.588829 -0.177501 0)
(0.599842 -0.168225 0)
(0.60044 -0.156965 0)
(0.595096 -0.145905 1.87511e-20)
(0.586841 -0.136389 -3.66491e-20)
(0.125873 -0.0515446 -2.32304e-20)
(0.319341 -0.114241 -5.02722e-22)
(0.459013 -0.143886 -1.12316e-20)
(0.548453 -0.155487 -1.02247e-20)
(0.598889 -0.156111 -1.12169e-20)
(0.622328 -0.150423 -1.11511e-20)
(0.628734 -0.141574 0)
(0.62537 -0.131546 -1.07745e-20)
(0.616884 -0.122055 5.15989e-20)
(0.606296 -0.113734 -6.84477e-20)
(0.143241 -0.0464435 3.55439e-20)
(0.353584 -0.0984415 4.80743e-23)
(0.498104 -0.120027 2.31423e-20)
(0.585883 -0.126801 -2.23059e-20)
(0.631879 -0.125307 3.49231e-20)
(0.650322 -0.119469 -1.11055e-20)
(0.652258 -0.111717 0)
(0.64531 -0.103475 1.07747e-20)
(0.634163 -0.0959652 -1.04879e-20)
(0.621678 -0.0892524 -4.31436e-20)
(0.160453 -0.0390024 0)
(0.385784 -0.0780859 0)
(0.533174 -0.0912173 1.26003e-20)
(0.617935 -0.0936258 -1.1731e-20)
(0.658873 -0.09078 1.25802e-20)
(0.672285 -0.0855663 -1.1811e-20)
(0.67008 -0.0795598 -2.44789e-20)
(0.66005 -0.073591 2.31378e-20)
(0.64678 -0.0683785 2.32445e-20)
(0.632844 -0.0635806 -1.12618e-20)
(0.176978 -0.029182 -6.88219e-21)
(0.414906 -0.0534608 0)
(0.563166 -0.0581048 6.73149e-21)
(0.643764 -0.0568395 -2.59618e-20)
(0.6793 -0.0535016 1.93282e-20)
(0.687886 -0.0496738 0)
(0.682031 -0.045991 0)
(0.669506 -0.0426873 0)
(0.654681 -0.0399977 2.47855e-20)
(0.63976 -0.0373598 -2.35573e-20)
(0.192251 -0.0170501 3.23274e-21)
(0.439963 -0.0250568 -2.2249e-22)
(0.587168 -0.0215251 6.70279e-21)
(0.662729 -0.017445 -3.61849e-21)
(0.6928 -0.0144999 -3.1845e-21)
(0.69698 -0.0127583 -6.74225e-21)
(0.688093 -0.011875 0)
(0.67372 -0.0115161 3.46615e-21)
(0.657909 -0.0114746 1.66052e-20)
(0.642471 -0.0111652 -1.257e-20)
(0.2057 -0.0027921 0)
(0.460061 0.00644254 3.641e-21)
(0.604451 0.0175311 0)
(0.674399 0.0234695 1.67857e-21)
(0.699217 0.0251724 1.58003e-21)
(0.699591 0.0242314 3.61803e-21)
(0.688384 0.0219643 0)
(0.672831 0.0192116 -3.46622e-21)
(0.656595 0.0165599 -3.37918e-21)
(0.641125 0.0144455 -3.42363e-21)
(0.00136861 -0.00251097 0)
(0.0124324 -0.0079294 2.90099e-21)
(0.0353183 -0.012468 0)
(0.0639719 -0.0158777 3.85459e-21)
(0.0954395 -0.0181126 1.20762e-21)
(0.127573 -0.019281 -2.2466e-21)
(0.158752 -0.0195702 2.11567e-21)
(0.187924 -0.019185 -1.95223e-21)
(0.21451 -0.0183055 -2.91009e-23)
(0.238277 -0.0170141 -1.6868e-21)
(0.00224985 -0.00756355 9.02406e-21)
(0.0153398 -0.0237428 -5.72324e-21)
(0.0401133 -0.0372413 5.39509e-21)
(0.0702489 -0.0473348 -2.55228e-21)
(0.102737 -0.0539149 -1.1976e-20)
(0.135448 -0.0573213 4.49725e-21)
(0.166824 -0.0581207 0)
(0.195896 -0.0569272 1.94573e-21)
(0.222187 -0.0542773 1.79908e-21)
(0.245557 -0.050417 0)
(0.00405919 -0.0126958 -5.98787e-21)
(0.0212014 -0.0394222 0)
(0.0497059 -0.061517 -1.62221e-20)
(0.0827535 -0.0778951 2.02608e-20)
(0.117213 -0.0884576 -4.73446e-21)
(0.151011 -0.0938134 0)
(0.18273 -0.0949234 0)
(0.211569 -0.0928118 0)
(0.23725 -0.0883584 -1.42486e-20)
(0.259823 -0.081966 1.3543e-20)
(0.00686849 -0.017936 0)
(0.0300964 -0.0548537 1.14151e-20)
(0.0640956 -0.0849319 -2.13192e-20)
(0.101362 -0.106946 1.0003e-20)
(0.138612 -0.12091 -9.51559e-21)
(0.173884 -0.12776 2.67676e-20)
(0.205993 -0.128873 -1.56229e-22)
(0.234402 -0.125683 -1.57343e-20)
(0.259131 -0.119389 -1.43434e-20)
(0.280513 -0.110528 2.04006e-20)
(0.0107768 -0.0232871 -1.18833e-20)
(0.0421218 -0.0698672 2.21607e-20)
(0.0832523 -0.107079 -1.45871e-22)
(0.125858 -0.133849 -3.75928e-23)
(0.166518 -0.150448 -9.52541e-21)
(0.203474 -0.158206 2.67053e-20)
(0.235885 -0.158949 0)
(0.263583 -0.154512 7.87337e-21)
(0.286978 -0.146366 -7.35905e-21)
(0.306781 -0.135144 2.68578e-20)
(0.0159017 -0.0287133 6.1306e-23)
(0.0573712 -0.0842277 -2.20048e-20)
(0.107088 -0.127499 -1.04987e-20)
(0.155905 -0.157949 -9.77681e-21)
(0.200339 -0.176271 -9.42715e-21)
(0.238967 -0.184275 -8.91179e-21)
(0.271427 -0.184256 0)
(0.298038 -0.178435 -7.87335e-21)
(0.319692 -0.168493 -2.19693e-20)
(0.337544 -0.155072 7.08409e-21)
(0.0223647 -0.03413 1.58081e-22)
(0.0759073 -0.0976246 -1.07304e-20)
(0.135427 -0.145675 0)
(0.19102 -0.178578 1.99774e-20)
(0.239295 -0.197633 -1.85431e-20)
(0.279339 -0.205203 0)
(0.311429 -0.204067 0)
(0.336493 -0.196803 0)
(0.355986 -0.185214 1.51434e-20)
(0.371545 -0.169825 2.74394e-20)
(0.0302745 -0.0393983 1.12864e-20)
(0.0977302 -0.109667 -1.05721e-20)
(0.167972 -0.16104 -2.03275e-20)
(0.230557 -0.195081 9.98249e-23)
(0.28242 -0.21387 -1.87077e-20)
(0.323385 -0.220383 -1.79407e-20)
(0.354547 -0.217882 -1.71407e-20)
(0.377572 -0.209245 -1.63046e-20)
(0.394521 -0.196292 -1.51434e-20)
(0.407448 -0.179277 1.42433e-20)
(0.0397095 -0.0443242 3.29244e-20)
(0.122748 -0.11989 1.1096e-20)
(0.204282 -0.17299 4.11383e-20)
(0.27369 -0.20683 1.97893e-20)
(0.328558 -0.224415 -8.78591e-23)
(0.369711 -0.229371 1.79676e-20)
(0.399261 -0.225404 -1.73857e-20)
(0.419768 -0.215623 1.63046e-20)
(0.433961 -0.201801 -1.58544e-20)
(0.444085 -0.184028 2.91555e-20)
(0.0507037 -0.0486654 -2.17868e-20)
(0.150757 -0.12777 0)
(0.24377 -0.180909 -2.01964e-20)
(0.319451 -0.213244 3.61305e-22)
(0.376432 -0.228802 2.66682e-22)
(0.416804 -0.231829 -1.87823e-20)
(0.443856 -0.226394 5.21976e-20)
(0.461143 -0.215732 0)
(0.472119 -0.201826 1.58544e-20)
(0.47949 -0.185742 0)
(0.258737 -0.015094 0)
(0.277211 -0.0132952 1.46915e-21)
(0.293601 -0.0116802 -2.8803e-21)
(0.308086 -0.0102461 1.23878e-21)
(0.320878 -0.0089785 0)
(0.332172 -0.00786252 -1.18946e-21)
(0.342136 -0.00688271 1.19536e-21)
(0.350921 -0.0060235 0)
(0.358662 -0.00527026 0)
(0.365478 -0.0046098 -1.14972e-22)
(0.371477 -0.00403041 0)
(0.37675 -0.00352169 0)
(0.381379 -0.00307434 0)
(0.385434 -0.00267998 0)
(0.388977 -0.00233099 1.12587e-22)
(0.392058 -0.00202037 -1.13171e-22)
(0.394718 -0.00174111 0)
(0.396985 -0.00148498 2.29868e-23)
(0.398901 -0.00125693 -2.31077e-23)
(0.400948 -0.00105729 0)
(0.264974 -0.0447688 0)
(0.282488 -0.0394689 -3.77957e-22)
(0.298036 -0.0347021 0)
(0.311827 -0.0304583 -5.18032e-21)
(0.32405 -0.0267007 5.04843e-21)
(0.334871 -0.0233893 -3.0958e-22)
(0.34444 -0.0204798 2.23e-21)
(0.352897 -0.0179269 -4.58441e-21)
(0.360365 -0.0156876 3.74433e-21)
(0.366955 -0.0137233 -2.03809e-21)
(0.372765 -0.0119995 -1.58423e-21)
(0.377881 -0.0104854 2.81888e-21)
(0.382379 -0.00915354 -1.423e-21)
(0.386326 -0.00797904 -6.8333e-22)
(0.389779 -0.00693953 5.39623e-22)
(0.392788 -0.00601481 -1.02403e-22)
(0.395394 -0.00518664 -8.01231e-23)
(0.39761 -0.00443869 -9.17084e-23)
(0.399468 -0.00374548 9.21526e-23)
(0.401469 -0.00313825 -1.19909e-23)
(0.277196 -0.0729072 3.96109e-22)
(0.292832 -0.0643778 3.78608e-22)
(0.306744 -0.0566823 3.66296e-22)
(0.319184 -0.0497998 0)
(0.330288 -0.0436876 5.77159e-21)
(0.340178 -0.0382916 -4.50959e-21)
(0.348971 -0.0335444 0)
(0.356782 -0.0293744 5.44556e-22)
(0.363713 -0.0257137 2.50413e-22)
(0.369857 -0.0225001 -3.06312e-21)
(0.375295 -0.0196783 3.49385e-22)
(0.380103 -0.0171985 3.58266e-21)
(0.384346 -0.015016 1.69272e-22)
(0.38808 -0.0130906 1.45332e-22)
(0.391357 -0.0113861 1.25375e-22)
(0.394217 -0.00987008 -2.61991e-22)
(0.396697 -0.0085136 2.50787e-22)
(0.398836 -0.00728998 2.75442e-22)
(0.400619 -0.00615177 5.82705e-23)
(0.402499 -0.00513723 4.6118e-25)
(0.294931 -0.0985663 1.21272e-20)
(0.307846 -0.0872397 -5.22679e-22)
(0.319404 -0.076967 -9.27394e-22)
(0.329889 -0.0677178 -1.15552e-20)
(0.339368 -0.0594695 -1.00575e-21)
(0.3479 -0.0521693 -3.12741e-22)
(0.355561 -0.0457346 8.52212e-21)
(0.362431 -0.0400735 -5.18433e-21)
(0.368579 -0.0350972 -4.24701e-21)
(0.374073 -0.030724 3.80698e-21)
(0.378972 -0.0268799 -3.52193e-22)
(0.383333 -0.0234987 -3.80981e-21)
(0.387204 -0.0205201 -1.67861e-22)
(0.39063 -0.0178899 -1.3862e-21)
(0.393649 -0.0155591 9.67399e-22)
(0.396298 -0.0134829 7.31137e-22)
(0.398606 -0.011621 -6.50563e-22)
(0.400616 -0.00993573 0)
(0.402282 -0.00839869 -1.04745e-22)
(0.404012 -0.00699452 -1.17875e-23)
(0.31746 -0.120957 -2.64459e-20)
(0.326925 -0.107405 1.14866e-20)
(0.335522 -0.095009 -1.22978e-20)
(0.343537 -0.0837482 0)
(0.350946 -0.073653 6.74051e-22)
(0.357744 -0.0646891 9.9323e-21)
(0.363961 -0.0567678 -7.26881e-23)
(0.36963 -0.0497841 -6.82959e-22)
(0.374783 -0.0436345 -8.62568e-21)
(0.379451 -0.0382219 -4.69549e-22)
(0.383666 -0.0334578 0)
(0.387459 -0.0292619 3.82713e-22)
(0.390861 -0.0255613 0)
(0.393897 -0.0222895 2.94314e-22)
(0.396594 -0.0193867 0)
(0.398977 -0.0167988 0)
(0.401066 -0.0144781 -1.59676e-22)
(0.40289 -0.0123838 1.85399e-22)
(0.404403 -0.0104869 -1.63477e-22)
(0.405944 -0.00869842 4.67409e-23)
(0.343867 -0.139458 0)
(0.349288 -0.124352 7.95406e-22)
(0.354449 -0.110363 2.40712e-20)
(0.359583 -0.0975099 -2.33262e-20)
(0.364561 -0.085915 7.05631e-22)
(0.369321 -0.0755785 0)
(0.373843 -0.0664137 9.48435e-21)
(0.378106 -0.05831 -1.76958e-20)
(0.382094 -0.0511559 9.32711e-21)
(0.385797 -0.0448447 4.90779e-22)
(0.389213 -0.0392782 4.4522e-22)
(0.392344 -0.0343666 3.99209e-22)
(0.395196 -0.0300275 0)
(0.397776 -0.0261857 -1.92049e-21)
(0.400093 -0.0227728 4.34326e-21)
(0.402157 -0.0197272 -1.85719e-21)
(0.403978 -0.0169943 1.65368e-22)
(0.405574 -0.0145267 1.18232e-22)
(0.406944 -0.0122907 -4.66674e-23)
(0.408315 -0.0101875 4.6575e-23)
(0.373109 -0.153622 -2.77961e-20)
(0.374041 -0.137708 0)
(0.375429 -0.122716 8.04611e-22)
(0.377391 -0.108739 -1.51323e-21)
(0.37968 -0.0960355 -1.43302e-21)
(0.382186 -0.0846545 -6.84567e-22)
(0.38484 -0.0745217 -6.40618e-22)
(0.38756 -0.0655306 8.43359e-21)
(0.39027 -0.0575684 -1.00728e-20)
(0.392915 -0.0505247 -8.52138e-21)
(0.395454 -0.0442963 7.07665e-21)
(0.397856 -0.0387878 -8.01336e-22)
(0.400102 -0.033911 2.6375e-21)
(0.402178 -0.0295842 -6.7362e-22)
(0.404076 -0.0257322 -2.77228e-21)
(0.405791 -0.0222864 -2.15289e-22)
(0.407321 -0.0191848 2.34233e-22)
(0.408668 -0.0163731 -3.02014e-22)
(0.409802 -0.0138123 -4.45928e-22)
(0.411008 -0.0113911 -2.40672e-23)
(0.404114 -0.163126 0)
(0.400254 -0.147186 2.69006e-20)
(0.397675 -0.131862 -2.7591e-20)
(0.396314 -0.117304 7.70126e-22)
(0.39577 -0.103937 1.48015e-21)
(0.395896 -0.0918661 6.83965e-22)
(0.396578 -0.0810416 1.29939e-21)
(0.39767 -0.0713778 0)
(0.399036 -0.0627759 5.4494e-22)
(0.40057 -0.0551336 4.97317e-22)
(0.402189 -0.0483531 4.66026e-22)
(0.403828 -0.0423413 8.17794e-22)
(0.40544 -0.03701 0)
(0.406989 -0.0322753 0)
(0.408449 -0.0280582 2.57751e-22)
(0.4098 -0.0242857 1.95221e-21)
(0.411027 -0.0208904 -1.35415e-21)
(0.412127 -0.0178114 1.20465e-22)
(0.413059 -0.0150016 2.36011e-22)
(0.414043 -0.0122719 -7.05651e-23)
(0.436062 -0.168297 -3.03888e-20)
(0.427093 -0.153069 0)
(0.420419 -0.13792 0)
(0.415718 -0.123252 2.53586e-20)
(0.412344 -0.109685 -2.06498e-21)
(0.41009 -0.097347 -4.60138e-20)
(0.408791 -0.086203 2.1501e-20)
(0.408239 -0.0761842 0)
(0.408241 -0.0672046 0)
(0.40864 -0.0591747 0)
(0.409313 -0.0520077 -2.19958e-22)
(0.410162 -0.0456197 -6.23635e-22)
(0.411113 -0.0399281 -5.48123e-21)
(0.412109 -0.034852 5.28146e-21)
(0.413105 -0.0303128 -1.93768e-21)
(0.414068 -0.0262363 1.71188e-21)
(0.414975 -0.0225534 0)
(0.415811 -0.0191999 -5.57154e-23)
(0.416529 -0.0161302 -6.96942e-23)
(0.417291 -0.0130722 0)
(0.468638 -0.170419 4.74917e-22)
(0.454472 -0.155786 2.9401e-20)
(0.443445 -0.140599 -2.90941e-20)
(0.4352 -0.125833 0)
(0.428924 -0.112112 -2.49327e-20)
(0.424278 -0.0995601 4.79583e-20)
(0.421007 -0.0881704 -2.30444e-20)
(0.418836 -0.077888 0)
(0.417509 -0.0686378 -9.07387e-21)
(0.416812 -0.0603432 1.71946e-20)
(0.41658 -0.0529305 -8.36628e-21)
(0.416679 -0.0463271 2.10192e-22)
(0.417007 -0.0404585 0)
(0.417485 -0.0352477 4.96295e-21)
(0.41805 -0.0306173 -6.74635e-21)
(0.418657 -0.0264911 1.96874e-21)
(0.419269 -0.0227974 1.17467e-21)
(0.419867 -0.0194673 -8.34292e-22)
(0.420405 -0.0164594 -3.85029e-22)
(0.421036 -0.013419 0)
(0.501086 -0.162033 0)
(0.48178 -0.153339 0)
(0.465932 -0.142161 0)
(0.454003 -0.130196 0)
(0.444917 -0.118202 0)
(0.437984 -0.10664 0)
(0.432817 -0.0957496 0)
(0.429077 -0.0856132 0)
(0.42645 -0.076245 0)
(0.424671 -0.0676386 0)
(0.423529 -0.0597775 0)
(0.42286 -0.0526335 0)
(0.422536 -0.0461656 0)
(0.422457 -0.040321 0)
(0.422547 -0.0350385 0)
(0.422748 -0.0302531 0)
(0.423016 -0.0258999 0)
(0.423325 -0.0219142 0)
(0.423634 -0.0182693 0)
(0.424082 -0.0145299 0)
(0.509293 -0.141104 0)
(0.493145 -0.133848 0)
(0.478369 -0.125 0)
(0.466355 -0.115613 0)
(0.456721 -0.10617 0)
(0.448996 -0.0969202 0)
(0.442909 -0.0880108 0)
(0.438222 -0.0795204 0)
(0.43468 -0.0714952 0)
(0.432053 -0.0639708 0)
(0.430145 -0.056974 0)
(0.428794 -0.0505168 0)
(0.427871 -0.0445927 0)
(0.427269 -0.0391776 0)
(0.426905 -0.0342342 0)
(0.426715 -0.0297164 0)
(0.426649 -0.0255753 0)
(0.426672 -0.0217586 0)
(0.426747 -0.0182571 0)
(0.426905 -0.0146311 0)
(0.514352 -0.124368 0)
(0.499852 -0.119007 0)
(0.486342 -0.112319 0)
(0.475038 -0.10494 0)
(0.465684 -0.0973177 0)
(0.457901 -0.0896895 0)
(0.451501 -0.0821873 0)
(0.446331 -0.0748921 0)
(0.442214 -0.0678646 0)
(0.438979 -0.0611595 0)
(0.43647 -0.0548252 0)
(0.434551 -0.0488964 0)
(0.433105 -0.0433888 0)
(0.432031 -0.0382989 0)
(0.431247 -0.0336075 0)
(0.430688 -0.0292845 0)
(0.4303 -0.0252941 0)
(0.430041 -0.0215947 0)
(0.429887 -0.0181884 0)
(0.429773 -0.0146249 0)
(0.517584 -0.109573 0)
(0.504408 -0.105884 0)
(0.492098 -0.100912 0)
(0.481612 -0.0951538 0)
(0.472726 -0.0890221 0)
(0.465139 -0.0827446 0)
(0.458711 -0.076444 0)
(0.45334 -0.0702008 0)
(0.448902 -0.064081 0)
(0.445274 -0.0581468 0)
(0.442338 -0.0524562 0)
(0.439986 -0.0470559 0)
(0.43812 -0.0419755 0)
(0.436651 -0.0372264 0)
(0.435505 -0.0328037 0)
(0.434618 -0.0286907 0)
(0.433939 -0.0248635 0)
(0.433422 -0.0212898 0)
(0.433058 -0.0179805 0)
(0.432703 -0.0144822 0)
(0.519553 -0.0963417 0)
(0.507673 -0.0939112 0)
(0.496492 -0.0902704 0)
(0.486793 -0.0858315 0)
(0.478402 -0.0809429 0)
(0.471092 -0.0758064 0)
(0.464764 -0.0705381 0)
(0.459345 -0.0652196 0)
(0.454748 -0.0599204 0)
(0.45088 -0.0547062 0)
(0.447656 -0.0496383 0)
(0.444989 -0.0447684 0)
(0.442802 -0.0401334 0)
(0.441018 -0.0357535 0)
(0.439573 -0.0316343 0)
(0.438409 -0.027769 0)
(0.43748 -0.0241433 0)
(0.436736 -0.0207332 0)
(0.436185 -0.0175574 0)
(0.435613 -0.0141686 0)
(0.520632 -0.0845475 0)
(0.509971 -0.0830779 0)
(0.499844 -0.0804919 0)
(0.490898 -0.0771255 0)
(0.48301 -0.0732658 0)
(0.476019 -0.0690876 0)
(0.469859 -0.0646999 0)
(0.464482 -0.0601847 0)
(0.459828 -0.0556133 0)
(0.455828 -0.0510524 0)
(0.452418 -0.0465641 0)
(0.449531 -0.0422013 0)
(0.447105 -0.0380042 0)
(0.445078 -0.0339983 0)
(0.443393 -0.0301959 0)
(0.442001 -0.0265975 0)
(0.440861 -0.0231962 0)
(0.439923 -0.019975 0)
(0.439212 -0.0169591 0)
(0.438449 -0.0137116 0)
(0.521062 -0.07408 0)
(0.511511 -0.0733263 0)
(0.502356 -0.0715561 0)
(0.494126 -0.0690425 0)
(0.48674 -0.0660221 0)
(0.480091 -0.0626434 0)
(0.474142 -0.0590059 0)
(0.468868 -0.0551885 0)
(0.464227 -0.0512615 0)
(0.46017 -0.0472903 0)
(0.45665 -0.0433356 0)
(0.453616 -0.0394498 0)
(0.451019 -0.035674 0)
(0.448808 -0.0320365 0)
(0.446936 -0.0285536 0)
(0.445361 -0.0252314 0)
(0.444047 -0.0220683 0)
(0.442947 -0.0190528 0)
(0.442099 -0.016215 0)
(0.441172 -0.0131329 0)
(0.521033 -0.0647961 0)
(0.51247 -0.064552 0)
(0.504197 -0.0633964 0)
(0.496635 -0.0615497 0)
(0.489738 -0.0592061 0)
(0.48344 -0.05649 0)
(0.477731 -0.0534891 0)
(0.472599 -0.0502765 0)
(0.46802 -0.0469185 0)
(0.463961 -0.0434776 0)
(0.460388 -0.0400116 0)
(0.457263 -0.0365707 0)
(0.454548 -0.0331956 0)
(0.452202 -0.0299156 0)
(0.450188 -0.0267494 0)
(0.448469 -0.0237067 0)
(0.447015 -0.02079 0)
(0.445781 -0.0179921 0)
(0.44482 -0.0153466 0)
(0.443753 -0.0124495 0)
(0.520689 -0.0565383 0)
(0.512993 -0.0566435 0)
(0.505508 -0.0559418 0)
(0.498559 -0.0546109 0)
(0.492126 -0.0528088 0)
(0.486179 -0.0506384 0)
(0.480723 -0.048175 0)
(0.475759 -0.0454842 0)
(0.471276 -0.0426268 0)
(0.467254 -0.0396607 0)
(0.46367 -0.0366397 0)
(0.460498 -0.033611 0)
(0.457707 -0.0306137 0)
(0.455266 -0.027677 0)
(0.453146 -0.0248207 0)
(0.451316 -0.0220566 0)
(0.449752 -0.0193902 0)
(0.448409 -0.0168175 0)
(0.447355 -0.0143742 0)
(0.446172 -0.0116778 0)
(0.520138 -0.0491621 0)
(0.513195 -0.0494949 0)
(0.506406 -0.0491216 0)
(0.500011 -0.0481851 0)
(0.494012 -0.0468131 0)
(0.488404 -0.0450893 0)
(0.483204 -0.0430776 0)
(0.478422 -0.0408352 0)
(0.474057 -0.0384167 0)
(0.4701 -0.0358741 0)
(0.466536 -0.0332567 0)
(0.463347 -0.0306082 0)
(0.460513 -0.027965 0)
(0.45801 -0.0253553 0)
(0.455814 -0.0227993 0)
(0.4539 -0.0203098 0)
(0.45225 -0.0178943 0)
(0.450821 -0.0155511 0)
(0.449693 -0.0133167 0)
(0.448414 -0.0108331 0)
(0.519464 -0.0425385 0)
(0.513172 -0.0430075 0)
(0.50699 -0.0428654 0)
(0.501089 -0.0422267 0)
(0.495488 -0.0411935 0)
(0.4902 -0.0398337 0)
(0.48525 -0.0382002 0)
(0.480654 -0.0363421 0)
(0.476419 -0.034307 0)
(0.472543 -0.0321414 0)
(0.46902 -0.0298892 0)
(0.46584 -0.0275901 0)
(0.462987 -0.0252775 0)
(0.460446 -0.022978 0)
(0.458198 -0.0207112 0)
(0.456223 -0.0184904 0)
(0.454509 -0.0163239 0)
(0.453012 -0.014212 0)
(0.451825 -0.0121905 0)
(0.450468 -0.00992886 0)
(0.51873 -0.0365533 0)
(0.512996 -0.037091 0)
(0.50734 -0.0371051 0)
(0.501875 -0.0366876 0)
(0.496633 -0.0359196 0)
(0.49164 -0.0348551 0)
(0.486927 -0.0335375 0)
(0.482513 -0.0320081 0)
(0.478411 -0.030308 0)
(0.474626 -0.0284776 0)
(0.471158 -0.0265555 0)
(0.468002 -0.0245771 0)
(0.465149 -0.0225726 0)
(0.462589 -0.0205665 0)
(0.460308 -0.0185772 0)
(0.45829 -0.0166177 0)
(0.456528 -0.0146969 0)
(0.45498 -0.0128161 0)
(0.453747 -0.0110098 0)
(0.452328 -0.00897675 0)
(0.517987 -0.0311065 0)
(0.512728 -0.0316626 0)
(0.507522 -0.0317759 0)
(0.502437 -0.0315195 0)
(0.497512 -0.0309573 0)
(0.492786 -0.0301318 0)
(0.488291 -0.0290778 0)
(0.48405 -0.0278299 0)
(0.480078 -0.0264225 0)
(0.476387 -0.0248903 0)
(0.47298 -0.0232668 0)
(0.469859 -0.0215831 0)
(0.467018 -0.0198659 0)
(0.464453 -0.018137 0)
(0.462152 -0.0164135 0)
(0.460106 -0.0147076 0)
(0.458309 -0.013028 0)
(0.456724 -0.0113769 0)
(0.455455 -0.00978653 0)
(0.453988 -0.0079868 0)
(0.517272 -0.0261097 0)
(0.512413 -0.0266479 0)
(0.507589 -0.0268169 0)
(0.502828 -0.0266746 0)
(0.49818 -0.0262708 0)
(0.49369 -0.0256383 0)
(0.489391 -0.0248047 0)
(0.485308 -0.0237982 0)
(0.481459 -0.0226474 0)
(0.477858 -0.0213815 0)
(0.474515 -0.0200291 0)
(0.471433 -0.0186167 0)
(0.468613 -0.0171677 0)
(0.466051 -0.0157011 0)
(0.463742 -0.0142322 0)
(0.461678 -0.0127721 0)
(0.459858 -0.011329 0)
(0.458244 -0.00990545 0)
(0.456949 -0.0085306 0)
(0.455445 -0.00696745 0)
(0.516614 -0.0214851 0)
(0.512087 -0.0219789 0)
(0.50758 -0.0221709 0)
(0.503093 -0.0221064 0)
(0.498681 -0.0218234 0)
(0.494394 -0.0213469 0)
(0.490267 -0.0206982 0)
(0.486324 -0.0198999 0)
(0.482586 -0.0189753 0)
(0.47907 -0.0179485 0)
(0.475787 -0.0168433 0)
(0.472746 -0.015682 0)
(0.469949 -0.0144844 0)
(0.467396 -0.0132667 0)
(0.465085 -0.0120421 0)
(0.463012 -0.0108204 0)
(0.461176 -0.009609 0)
(0.459542 -0.00841037 0)
(0.458228 -0.00725016 0)
(0.456695 -0.00592569 0)
(0.516032 -0.0171635 0)
(0.511775 -0.0175943 0)
(0.507528 -0.017785 0)
(0.503267 -0.0177703 0)
(0.499051 -0.0175786 0)
(0.494935 -0.0172284 0)
(0.490953 -0.0167359 0)
(0.487129 -0.0161186 0)
(0.483487 -0.0153951 0)
(0.480045 -0.0145847 0)
(0.476818 -0.0137068 0)
(0.473814 -0.0127794 0)
(0.471041 -0.0118188 0)
(0.4685 -0.0108384 0)
(0.466192 -0.00984908 0)
(0.464113 -0.00885915 0)
(0.462267 -0.00787487 0)
(0.46062 -0.00689853 0)
(0.459292 -0.00595171 0)
(0.457739 -0.00486724 0)
(0.51554 -0.0130833 0)
(0.511498 -0.0134385 0)
(0.507459 -0.01361 0)
(0.503378 -0.0136237 0)
(0.49932 -0.0135001 0)
(0.495341 -0.0132527 0)
(0.491476 -0.0128934 0)
(0.48775 -0.0124353 0)
(0.484186 -0.0118927 0)
(0.480805 -0.0112805 0)
(0.477623 -0.0106136 0)
(0.474653 -0.00990628 0)
(0.471901 -0.00917097 0)
(0.469372 -0.00841827 0)
(0.467068 -0.00765669 0)
(0.464988 -0.00689281 0)
(0.463136 -0.00613164 0)
(0.461479 -0.00537517 0)
(0.460143 -0.00464038 0)
(0.458574 -0.00379675 0)
(0.515148 -0.0091944 0)
(0.511274 -0.00946432 0)
(0.507393 -0.0096019 0)
(0.503449 -0.00962619 0)
(0.49951 -0.00955207 0)
(0.495635 -0.00938881 0)
(0.491857 -0.0091447 0)
(0.488204 -0.00882896 0)
(0.484698 -0.00845176 0)
(0.481364 -0.00802379 0)
(0.478218 -0.00755575 0)
(0.475273 -0.00705775 0)
(0.472538 -0.00653873 0)
(0.470019 -0.00600628 0)
(0.46772 -0.00546649 0)
(0.46564 -0.00492413 0)
(0.463785 -0.00438279 0)
(0.462123 -0.00384416 0)
(0.460779 -0.00332004 0)
(0.459201 -0.00271822 0)
(0.514878 -0.00544928 0)
(0.511123 -0.00562495 0)
(0.507352 -0.00571597 0)
(0.503501 -0.00573641 0)
(0.499639 -0.00569706 0)
(0.495831 -0.00560397 0)
(0.49211 -0.00546206 0)
(0.488504 -0.0052768 0)
(0.485037 -0.0050543 0)
(0.481733 -0.004801 0)
(0.47861 -0.00452332 0)
(0.475682 -0.0042273 0)
(0.472959 -0.00391831 0)
(0.470448 -0.00360087 0)
(0.468152 -0.00327867 0)
(0.466073 -0.00295457 0)
(0.464216 -0.00263067 0)
(0.462551 -0.00230837 0)
(0.461203 -0.00199341 0)
(0.459619 -0.00163512 0)
(0.514759 -0.00175485 0)
(0.511069 -0.00184678 0)
(0.50735 -0.00189104 0)
(0.503539 -0.00190347 0)
(0.499712 -0.0018928 0)
(0.495934 -0.0018631 0)
(0.492239 -0.00181667 0)
(0.488654 -0.0017556 0)
(0.485206 -0.00168203 0)
(0.481917 -0.00159814 0)
(0.478805 -0.00150608 0)
(0.475886 -0.00140785 0)
(0.473169 -0.00130525 0)
(0.470661 -0.00119977 0)
(0.468368 -0.00109265 0)
(0.466289 -0.000984843 0)
(0.464431 -0.000877007 0)
(0.462765 -0.000769787 0)
(0.461413 -0.000664405 0)
(0.459829 -0.000546403 0)
(0.627316 0.0129057 3.34462e-21)
(0.62876 -0.00816683 0)
(0.626884 -0.0299589 -7.23374e-22)
(0.621572 -0.052055 -2.20319e-20)
(0.612799 -0.0740179 4.19976e-20)
(0.600539 -0.0953255 0)
(0.585034 -0.115534 3.78363e-20)
(0.566072 -0.133969 0)
(0.545649 -0.149837 3.53019e-20)
(0.517941 -0.164816 -5.41422e-22)
(0.614801 0.0112219 -3.46525e-21)
(0.616166 -0.00698182 7.87125e-22)
(0.614664 -0.0257513 -7.88563e-22)
(0.610261 -0.0447415 -4.83769e-22)
(0.603012 -0.0636127 -2.07369e-20)
(0.592868 -0.0819474 -1.33112e-21)
(0.580313 -0.0994628 0)
(0.564446 -0.115688 -3.78535e-20)
(0.548674 -0.129814 0)
(0.523462 -0.14552 -3.46435e-20)
(0.603852 0.00948497 7.00567e-21)
(0.605021 -0.00627323 0)
(0.603749 -0.0224864 -7.58902e-22)
(0.600006 -0.0388786 3.34382e-22)
(0.593882 -0.0551859 2.20956e-20)
(0.585263 -0.0710818 0)
(0.574812 -0.086343 3.93012e-20)
(0.561177 -0.10072 3.89081e-20)
(0.548562 -0.113068 0)
(0.527045 -0.127995 3.42861e-20)
(0.594413 0.00807024 -3.10788e-21)
(0.595372 -0.00558047 1.31121e-20)
(0.594249 -0.0195743 0)
(0.591009 -0.033714 2.38841e-20)
(0.58576 -0.0477908 1.38321e-21)
(0.578351 -0.0615581 -2.6951e-21)
(0.569529 -0.0747928 -3.78801e-20)
(0.557819 -0.0874438 -1.24546e-21)
(0.547389 -0.0981596 -3.72275e-20)
(0.529231 -0.111778 0)
(0.586257 0.00688024 0)
(0.587026 -0.00497172 -1.27745e-20)
(0.585998 -0.0170841 -1.46371e-20)
(0.583132 -0.0293109 2.27588e-21)
(0.578554 -0.0414782 -1.48878e-21)
(0.572107 -0.0534073 -1.33121e-21)
(0.564525 -0.0648702 -3.91795e-20)
(0.554419 -0.0759612 -2.45563e-21)
(0.545462 -0.0853158 5.70905e-22)
(0.530107 -0.0974137 3.55991e-20)
(0.579188 0.00584725 3.66988e-21)
(0.579807 -0.00444136 8.44401e-22)
(0.578834 -0.0149475 -1.7753e-21)
(0.576249 -0.0255426 7.98492e-22)
(0.572186 -0.0360778 -2.36418e-20)
(0.566504 -0.0464271 0)
(0.559863 -0.0563668 4.2959e-20)
(0.551081 -0.066061 -1.27557e-21)
(0.543207 -0.0742535 7.5182e-20)
(0.530147 -0.0848109 -7.10279e-20)
(0.573074 0.00498151 -3.68796e-21)
(0.573545 -0.00395978 -7.04991e-21)
(0.572605 -0.0130831 1.32524e-20)
(0.570242 -0.0222741 -2.37789e-20)
(0.566581 -0.0314052 -1.78671e-21)
(0.561514 -0.0403867 -2.26135e-20)
(0.555603 -0.0490103 1.29124e-21)
(0.54791 -0.0574548 -2.50618e-21)
(0.540874 -0.0646408 -3.63832e-20)
(0.529656 -0.073777 3.54297e-20)
(0.567745 0.00425319 0)
(0.568096 -0.00352003 1.50773e-20)
(0.567181 -0.0114411 -1.68502e-21)
(0.564996 -0.0194144 1.34021e-20)
(0.561655 -0.0273303 -2.27663e-22)
(0.557086 -0.0351215 4.4071e-20)
(0.551752 -0.0426043 -2.01684e-20)
(0.544939 -0.0499418 0)
(0.538567 -0.0562468 0)
(0.528825 -0.0641182 0)
(0.563094 0.00363252 0)
(0.563349 -0.00311546 -1.34883e-20)
(0.562455 -0.00998408 -8.73391e-22)
(0.560416 -0.0168936 1.28392e-20)
(0.557332 -0.0237502 2.42384e-20)
(0.553165 -0.0305005 -2.42379e-20)
(0.548291 -0.0369888 2.42004e-20)
(0.542185 -0.0433496 -1.30471e-21)
(0.536347 -0.0488719 0)
(0.527792 -0.0556319 1.80126e-20)
(0.559039 0.00309898 4.65478e-22)
(0.559218 -0.00274195 7.65623e-21)
(0.558342 -0.0086819 1.20779e-20)
(0.556421 -0.0146545 -7.51986e-22)
(0.553546 -0.0205802 1.57593e-21)
(0.549705 -0.0264146 -2.46372e-20)
(0.545202 -0.0320288 2.45648e-20)
(0.539661 -0.0375267 -1.31103e-21)
(0.534253 -0.0423471 0)
(0.526653 -0.0481351 -3.58431e-20)
(0.555515 0.00263599 0)
(0.555632 -0.00239599 7.33671e-21)
(0.554771 -0.0075099 6.94694e-23)
(0.552948 -0.0126505 0)
(0.550243 -0.0177513 0)
(0.546666 -0.0227739 2.18046e-20)
(0.542462 -0.0276132 -2.03931e-20)
(0.537373 -0.0323463 -1.24817e-21)
(0.532309 -0.036533 6.47891e-22)
(0.525478 -0.0414698 1.8407e-20)
(0.552469 0.00223059 0)
(0.552535 -0.00207424 -1.38678e-20)
(0.551688 -0.0064474 -1.57301e-20)
(0.549945 -0.0108433 2.46383e-21)
(0.547379 -0.0152066 -1.60005e-21)
(0.544014 -0.0195041 -1.42933e-21)
(0.540053 -0.0236506 2.74969e-21)
(0.535323 -0.0277014 1.80584e-20)
(0.530535 -0.0313123 1.81628e-21)
(0.52432 -0.0355004 -5.7401e-22)
(0.549859 0.00187244 0)
(0.549883 -0.00177348 7.4331e-21)
(0.549046 -0.00547681 -8.6188e-22)
(0.547369 -0.00920019 8.54719e-22)
(0.544916 -0.0128984 0)
(0.541722 -0.0165425 0)
(0.537957 -0.0200639 0)
(0.533511 -0.0235012 -2.05385e-20)
(0.528942 -0.0265857 1.92452e-20)
(0.52322 -0.0301107 0)
(0.547648 0.00155318 0)
(0.547638 -0.00149065 4.6725e-21)
(0.546809 -0.00458289 6.21478e-21)
(0.545184 -0.00769354 8.37084e-21)
(0.542823 -0.0107862 -1.61983e-21)
(0.539767 -0.0138359 1.04324e-20)
(0.536157 -0.0167881 -9.67891e-21)
(0.531936 -0.0196684 0)
(0.527539 -0.0222681 6.85091e-22)
(0.522208 -0.0252008 -1.83714e-20)
(0.545807 0.00126595 -9.92587e-22)
(0.545768 -0.00122275 -3.7739e-21)
(0.544945 -0.00375229 -8.0289e-21)
(0.543363 -0.00629927 -5.885e-21)
(0.541074 -0.00883502 0)
(0.538127 -0.0113387 -1.33262e-20)
(0.534641 -0.013767 1.38511e-20)
(0.530595 -0.0161365 -1.32391e-21)
(0.52633 -0.0182861 -9.49769e-21)
(0.521305 -0.020684 2.649e-20)
(0.54431 0.00100525 9.97695e-22)
(0.544247 -0.000966685 -2.87777e-21)
(0.543429 -0.0029729 2.68699e-21)
(0.541879 -0.00499597 -6.81074e-21)
(0.539648 -0.0070141 0)
(0.536785 -0.00901049 0)
(0.533394 -0.0109516 1.35528e-21)
(0.529482 -0.0128474 -1.29136e-20)
(0.525317 -0.0145752 -8.29412e-21)
(0.520526 -0.0164849 -8.77352e-21)
(0.543136 0.00076572 0)
(0.543053 -0.000720141 4.76188e-21)
(0.542238 -0.0022343 -1.80766e-21)
(0.540713 -0.00376475 6.03592e-21)
(0.538525 -0.00529592 1.6428e-21)
(0.535725 -0.00681516 -1.46076e-21)
(0.532406 -0.00829743 2.78417e-21)
(0.528592 -0.00974843 8.96612e-21)
(0.524498 -0.0110774 0)
(0.51988 -0.0125356 0)
(0.542267 0.000542818 0)
(0.542168 -0.000482956 1.92719e-21)
(0.541354 -0.00153141 -3.64566e-21)
(0.539846 -0.00259506 0)
(0.53769 -0.00366387 -3.22257e-21)
(0.534935 -0.00472931 -1.46433e-21)
(0.531665 -0.00577416 -4.1473e-21)
(0.527918 -0.00680159 -1.25333e-21)
(0.523872 -0.00774838 6.39282e-22)
(0.519373 -0.00878324 5.57613e-22)
(0.541682 0.000343906 0)
(0.541571 -0.000241439 -1.93651e-21)
(0.540758 -0.000843292 -1.81406e-21)
(0.539263 -0.00145912 2.56987e-21)
(0.537128 -0.00208401 1.57326e-21)
(0.534402 -0.00271364 1.50458e-21)
(0.531164 -0.00333813 6.92076e-21)
(0.527459 -0.00395975 -5.13636e-21)
(0.523442 -0.00454006 1.20979e-21)
(0.519018 -0.00517903 0)
(0.541366 0.000129162 0)
(0.541251 8.65565e-06 9.58861e-22)
(0.54044 -0.000123683 -9.28193e-22)
(0.538954 -0.000270933 8.92102e-22)
(0.536832 -0.000434802 0)
(0.534123 -0.00061729 -1.51226e-21)
(0.530903 -0.000818713 1.36387e-21)
(0.527222 -0.00104423 1.24978e-21)
(0.523221 -0.00128463 0)
(0.518844 -0.00158416 0)
(0.469255 0.153905 0)
(0.465942 0.169731 -4.77566e-20)
(0.465259 0.18861 0)
(0.464179 0.211292 -1.57826e-19)
(0.461435 0.237221 5.78409e-20)
(0.455206 0.265024 9.56337e-22)
(0.440524 0.290192 5.84928e-20)
(0.405671 0.301031 -2.61547e-21)
(0.32733 0.271357 0)
(0.166807 0.146809 6.99525e-20)
(0.490548 0.152908 8.96647e-20)