/*--------------------------------*- C++ -*----------------------------------*\
| =========                 |                                                 |
| \\      /  F ield         | OpenFOAM: The Open Source CFD Toolbox           |
|  \\    /   O peration     | Version:  4.1                                   |
|   \\  /    A nd           | Web:      www.OpenFOAM.org                      |
|    \\/     M anipulation  |                                                 |
\*---------------------------------------------------------------------------*/
FoamFile
{
    version     2.0;
    format      ascii;
    class       volScalarField;
    location    "12";
    object      p;
}
// * * * * * * * * * * * * * * * * * * * * * * * * * * * * * * * * * * * * * //

dimensions      [0 2 -2 0 0 0 0];

internalField   nonuniform List<scalar> 
2000
(
0.0723972
0.0809686
0.0893531
0.0974753
0.104785
0.111106
0.116661
0.12061
0.12472
0.122366
0.0564294
0.0683536
0.0789078
0.088818
0.0978294
0.105833
0.112893
0.118778
0.124167
0.126156
0.0367574
0.0526355
0.0655738
0.077578
0.0889108
0.0994278
0.109052
0.117685
0.125546
0.131991
0.0133632
0.0337234
0.0493181
0.0641135
0.0788858
0.0930889
0.106288
0.118257
0.129277
0.138374
-0.0130406
0.0120552
0.0308037
0.04968
0.069392
0.0884731
0.105995
0.121728
0.135714
0.147551
-0.0409815
-0.0111792
0.0117687
0.0365201
0.0626415
0.0874373
0.109662
0.129161
0.146118
0.16061
-0.0678951
-0.0338679
-0.00495926
0.027519
0.0610026
0.0917763
0.11863
0.141714
0.161476
0.178564
-0.0903392
-0.0528718
-0.0159823
0.0255647
0.0666017
0.103039
0.134112
0.160406
0.182793
0.202336
-0.10456
-0.0642612
-0.0180052
0.0330446
0.0811228
0.122499
0.157137
0.186133
0.210797
0.232338
-0.107114
-0.0641882
-0.00816749
0.0517144
0.105761
0.151093
0.188497
0.219575
0.246004
0.268846
0.130608
0.126708
0.124691
0.122847
0.120798
0.11855
0.116103
0.11344
0.110484
0.107049
0.129089
0.125502
0.12367
0.121964
0.120062
0.117983
0.115735
0.113331
0.110727
0.107522
0.12626
0.12329
0.121809
0.120414
0.118844
0.117136
0.115313
0.113421
0.111504
0.108942
0.122502
0.120355
0.119417
0.118541
0.117526
0.116428
0.115284
0.114135
0.113176
0.112202
0.118168
0.116957
0.116763
0.116641
0.116418
0.116155
0.115921
0.115767
0.116043
0.116642
0.113441
0.113224
0.113981
0.114839
0.11561
0.11634
0.117141
0.118094
0.119741
0.122898
0.108243
0.10909
0.111011
0.113042
0.114955
0.116741
0.118598
0.120588
0.123071
0.130161
0.102195
0.10433
0.107536
0.110939
0.114121
0.117033
0.119861
0.122834
0.125374
0.136216
0.094637
0.098461
0.103145
0.108037
0.112546
0.116542
0.120295
0.124044
0.126796
0.138221
0.0849528
0.0908458
0.0972682
0.103736
0.109602
0.114689
0.119269
0.123059
0.126583
0.132655
0.103057
0.0988217
0.0942261
0.0892623
0.0839652
0.0783729
0.0725325
0.0665009
0.060343
0.054129
0.0479318
0.0418229
0.0358684
0.0301261
0.0246437
0.0194486
0.0145154
0.0097644
0.00525814
0.00149582
0.103117
0.0989432
0.0944164
0.0894661
0.0841555
0.0785301
0.0726382
0.0665393
0.0603015
0.0539994
0.0477108
0.0415135
0.0354805
0.0296766
0.0241571
0.0189589
0.0140575
0.0093419
0.00484922
0.00124981
0.103674
0.0996248
0.0952359
0.0903022
0.0849556
0.0792584
0.0732598
0.0670222
0.0606193
0.054132
0.0476471
0.0412529
0.0350355
0.0290737
0.0234382
0.0181846
0.0133055
0.00866093
0.0042159
0.000841921
0.104887
0.101364
0.0972101
0.0922774
0.0868798
0.0810874
0.0749447
0.0685161
0.0618796
0.055123
0.0483421
0.0416374
0.0351106
0.0288592
0.0229745
0.0175378
0.0125841
0.0079972
0.00362471
0.000338725
0.108216
0.104233
0.100471
0.09569
0.0902444
0.0843517
0.0780664
0.0714382
0.0645433
0.057476
0.0503399
0.0432459
0.0363093
0.0296462
0.0233678
0.0175769
0.012361
0.00769696
0.00336905
-0.000208126
0.112268
0.107756
0.104612
0.100216
0.0947891
0.0888359
0.0824769
0.0757194
0.0686202
0.0612793
0.0538086
0.0463248
0.0389517
0.0318181
0.0250533
0.0187803
0.0131106
0.00810361
0.00366403
-2.0575e-05
0.116463
0.111013
0.108801
0.105172
0.0998916
0.0939515
0.0876335
0.0808674
0.0736669
0.0661434
0.0584212
0.0506195
0.0428642
0.0352911
0.0280393
0.0212426
0.015028
0.0094942
0.00472318
0.000565431
0.120012
0.113371
0.112359
0.109737
0.104723
0.0989351
0.0928174
0.0861815
0.0790029
0.0714189
0.0635651
0.0555565
0.047517
0.0395855
0.0319068
0.0246167
0.0178546
0.0116922
0.00633472
0.00139313
0.122235
0.115415
0.11573
0.113764
0.109063
0.103681
0.0978804
0.0913678
0.0841959
0.0765661
0.0686193
0.0604608
0.0522088
0.0439979
0.0359714
0.0282514
0.0209838
0.0141866
0.00808336
0.0022409
0.119235
0.117658
0.11866
0.115926
0.111955
0.10773
0.102687
0.0965931
0.0896678
0.0821532
0.0741956
0.0659138
0.0574394
0.048913
0.0404853
0.0322692
0.0244164
0.0169152
0.0099437
0.0031066
0.128502
0.12932
0.124624
0.119398
0.114864
0.110272
0.104925
0.0986997
0.0917515
0.0842536
0.0763284
0.0680842
0.0596363
0.0511061
0.0426267
0.034289
0.0262236
0.018401
0.0109513
0.00355604
0.126731
0.127681
0.124028
0.119231
0.114633
0.109898
0.104522
0.0983673
0.0915339
0.0841759
0.0764134
0.0683489
0.060079
0.0517063
0.043339
0.0350529
0.0269469
0.0189997
0.0113007
0.00364977
0.129197
0.128193
0.125092
0.120674
0.115781
0.110573
0.104874
0.0985718
0.0916964
0.0843577
0.0766554
0.0686852
0.0605211
0.052254
0.0439558
0.035706
0.0275514
0.0195246
0.0116317
0.00385065
0.134062
0.13074
0.127299
0.122884
0.117654
0.111938
0.105825
0.0992811
0.0922899
0.0849089
0.0772041
0.0692652
0.0611421
0.0529255
0.0446444
0.0363997
0.0281712
0.0200732
0.0119891
0.0040922
0.140028
0.134897
0.130475
0.125581
0.119921
0.113725
0.107185
0.100344
0.0931717
0.0856906
0.0779283
0.0699671
0.0618317
0.0536191
0.0453159
0.0370505
0.0287359
0.0205634
0.0123003
0.00428767
0.146818
0.140162
0.134449
0.128741
0.122537
0.115873
0.108906
0.101723
0.0943074
0.0866656
0.078792
0.0707589
0.0625653
0.0543149
0.0459585
0.0376466
0.0292395
0.0209822
0.0125635
0.00443066
0.153987
0.145942
0.138929
0.132286
0.125454
0.118303
0.110907
0.103358
0.0956531
0.0878009
0.0797713
0.071625
0.0633374
0.0550143
0.0465804
0.0381983
0.0296948
0.0213417
0.0127896
0.00452958
0.16107
0.151857
0.143692
0.13612
0.128612
0.120945
0.113111
0.105183
0.0971626
0.0890648
0.0808446
0.0725521
0.0641424
0.0557188
0.0471883
0.0387164
0.0301128
0.0216556
0.0129856
0.0045968
0.167892
0.157747
0.148595
0.140145
0.131942
0.123736
0.115456
0.107144
0.098796
0.0904303
0.0819944
0.0735301
0.0649767
0.0564311
0.0477891
0.0392127
0.0305051
0.0219388
0.0131601
0.00464685
0.174432
0.163529
0.153517
0.144249
0.135362
0.12661
0.117884
0.109191
0.100513
0.091868
0.0832008
0.0745468
0.0658339
0.0571513
0.0483868
0.0396961
0.0308808
0.0222037
0.0133213
0.00469054
0.180633
0.169105
0.15834
0.148318
0.138777
0.129495
0.120334
0.111269
0.102267
0.0933422
0.0844371
0.0755838
0.0667022
0.0578734
0.0489797
0.0401692
0.0312442
0.0224566
0.0134739
0.00473246
0.186386
0.174373
0.162958
0.152251
0.142099
0.132314
0.12274
0.113322
0.104009
0.0948116
0.0856709
0.0766162
0.067563
0.0585845
0.0495596
0.0406274
0.0315934
0.022697
0.0136182
0.0047714
0.191605
0.179237
0.167274
0.155955
0.145245
0.134996
0.125038
0.115292
0.105688
0.0962325
0.0868658
0.0776146
0.0683936
0.0592665
0.0501132
0.0410606
0.0319219
0.0229192
0.0137511
0.004802
0.196246
0.183618
0.171201
0.159351
0.148144
0.137475
0.12717
0.117125
0.107257
0.0975627
0.0879863
0.0785493
0.0691698
0.0598999
0.0506257
0.0414564
0.0322215
0.0231151
0.0138681
0.00481762
0.200293
0.187452
0.174666
0.162373
0.150739
0.139703
0.12909
0.118778
0.108675
0.0987659
0.089001
0.0793942
0.0698705
0.0604673
0.0510837
0.0418046
0.0324846
0.0232791
0.0139655
0.00481428
0.203732
0.190693
0.177615
0.164971
0.152988
0.141639
0.13076
0.120217
0.109911
0.0998151
0.0898867
0.080129
0.0704788
0.0609558
0.0514774
0.0420982
0.0327068
0.0234091
0.0140425
0.00479361
0.206533
0.193308
0.180012
0.167107
0.154854
0.143251
0.132151
0.121416
0.110943
0.100694
0.090627
0.0807395
0.0709828
0.0613573
0.0518008
0.042335
0.0328863
0.0235073
0.0141004
0.00476268
0.208671
0.195277
0.181821
0.168741
0.156292
0.144496
0.133226
0.122342
0.111739
0.10137
0.0911993
0.0812121
0.0713735
0.0616666
0.0520497
0.0425148
0.0330227
0.0235781
0.0141419
0.0047306
0.21019
0.196626
0.183042
0.169837
0.15726
0.145338
0.133955
0.12297
0.11228
0.10183
0.0915892
0.0815343
0.0716402
0.0618769
0.052219
0.0426357
0.0331146
0.0236236
0.0141681
0.00470453
0.211225
0.197534
0.183779
0.170437
0.157769
0.145778
0.134335
0.123297
0.112562
0.10207
0.0917919
0.0817014
0.0717783
0.0619855
0.0523062
0.0426979
0.0331617
0.0236471
0.0141813
0.00469141
0.286943
0.250288
0.219376
0.194046
0.17415
0.158893
0.147599
0.13861
0.132465
0.119948
0.301793
0.265942
0.235307
0.209398
0.188287
0.170619
0.157021
0.143486
0.135762
0.121486
0.315238
0.28049
0.250542
0.224367
0.202532
0.182675
0.167404
0.150936
0.142897
0.129195
0.327296
0.293568
0.264252
0.237827
0.215618
0.194486
0.1787
0.161553
0.152656
0.138365
0.338019
0.305151
0.276374
0.249834
0.227557
0.205999
0.18996
0.172466
0.161616
0.146518
0.347545
0.315453
0.2872
0.260763
0.238552
0.216862
0.200191
0.182123
0.169671
0.154388
0.356015
0.324669
0.296938
0.270745
0.248561
0.226767
0.209407
0.191054
0.177884
0.162568
0.363543
0.332912
0.305672
0.279779
0.257595
0.235803
0.218072
0.199772
0.186215
0.170689
0.370204
0.340245
0.313459
0.287899
0.265774
0.244135
0.226279
0.208068
0.194094
0.178386
0.376066
0.346728
0.320365
0.29517
0.273176
0.251759
0.23383
0.215665
0.201305
0.185612
0.381201
0.352443
0.326467
0.301647
0.279811
0.258622
0.240621
0.222544
0.207908
0.192357
0.385644
0.357452
0.331826
0.307371
0.285692
0.264736
0.246691
0.228768
0.213934
0.198523
0.389439
0.361765
0.336476
0.312384
0.290865
0.270154
0.252102
0.234348
0.219356
0.204026
0.392625
0.36543
0.340471
0.316738
0.295384
0.274919
0.256884
0.239277
0.224156
0.20887
0.395274
0.368523
0.343876
0.320487
0.299296
0.279063
0.261052
0.243577
0.228347
0.213108
0.397445
0.371102
0.346734
0.323663
0.302621
0.282608
0.264615
0.247278
0.231934
0.216769
0.399165
0.373187
0.349061
0.326279
0.305363
0.285566
0.267574
0.250386
0.234906
0.219826
0.400423
0.374772
0.350856
0.328338
0.307531
0.287937
0.269939
0.252893
0.237265
0.222235
0.401156
0.375796
0.352073
0.329796
0.309102
0.289697
0.271711
0.254792
0.239046
0.224022
0.401326
0.376158
0.352577
0.330483
0.309897
0.290646
0.272706
0.255895
0.240118
0.225128
0.841753
0.843388
0.837832
0.82639
0.810075
0.788392
0.758892
0.718309
0.668273
0.640671
0.793119
0.79086
0.777608
0.759736
0.738166
0.710805
0.67437
0.625449
0.565769
0.531113
0.738825
0.731269
0.712081
0.689211
0.662828
0.629846
0.58664
0.529858
0.461211
0.420098
0.676181
0.6645
0.641834
0.615563
0.585154
0.547114
0.497832
0.43425
0.357806
0.31152
0.609915
0.594881
0.569787
0.540894
0.507079
0.464701
0.410312
0.341472
0.258981
0.209573
0.543838
0.525697
0.498677
0.467675
0.431057
0.385146
0.326648
0.25408
0.168681
0.118375
0.479898
0.458988
0.43062
0.398135
0.359457
0.311025
0.249688
0.174417
0.0916442
0.0405995
0.419376
0.396294
0.367339
0.334155
0.294321
0.244605
0.182213
0.1072
0.0286437
-0.0216659
0.363418
0.339009
0.310447
0.277341
0.23726
0.187606
0.126234
0.0540141
-0.0187833
-0.0670471
0.312313
0.288756
0.261066
0.228596
0.189338
0.141199
0.0826525
0.0155385
-0.0496196
-0.0952412
1.10396
1.11421
1.12576
1.13862
1.15277
1.16806
1.18399
1.19918
1.21271
1.23079
1.10129
1.11093
1.12201
1.13435
1.14785
1.16232
1.17726
1.19125
1.2034
1.2207
1.09566
1.10407
1.11422
1.12554
1.13772
1.15059
1.16355
1.17513
1.18467
1.2002
1.08649
1.09304
1.10184
1.11165
1.12192
1.13241
1.14245
1.15049
1.15615
1.169
1.07303
1.07711
1.08416
1.09203
1.09982
1.10723
1.11346
1.11687
1.11743
1.12667
1.05444
1.05542
1.06035
1.0659
1.07072
1.0744
1.07604
1.07383
1.06812
1.07285
1.02989
1.02724
1.02981
1.03276
1.03414
1.03348
1.02979
1.02106
1.00799
1.00735
0.998061
0.991316
0.991636
0.99195
0.989578
0.984119
0.974509
0.958505
0.937128
0.93038
0.958365
0.947841
0.946491
0.943857
0.93715
0.926399
0.91039
0.886521
0.856044
0.842613
0.905785
0.896097
0.894595
0.88864
0.877185
0.860886
0.838159
0.805996
0.765841
0.745384
1.00131
1.00423
1.00771
1.01138
1.01503
1.01871
1.02248
1.02637
1.03041
1.03465
1.03908
1.04372
1.04864
1.05387
1.05946
1.06546
1.07195
1.07896
1.08659
1.0949
1.00132
1.00425
1.00772
1.01135
1.01497
1.01862
1.02235
1.02621
1.03022
1.0344
1.03876
1.04334
1.04817
1.0533
1.05877
1.06462
1.07092
1.07771
1.08504
1.093
1.00135
1.00429
1.0077
1.01126
1.01483
1.01841
1.02208
1.02586
1.02978
1.03384
1.03808
1.0425
1.04716
1.05207
1.05728
1.06281
1.06871
1.07501
1.08172
1.08892
1.00139
1.00432
1.00763
1.01109
1.01456
1.01805
1.0216
1.02526
1.02903
1.0329
1.03691
1.04108
1.04544
1.04999
1.05476
1.05976
1.065
1.0705
1.07617
1.08212
1.00141
1.00433
1.0075
1.0108
1.01411
1.01743
1.0208
1.02425
1.02783
1.03143
1.03511
1.0389
1.0428
1.04682
1.05093
1.05513
1.05939
1.06368
1.06781
1.07188
1.00142
1.00428
1.00727
1.01034
1.01345
1.01657
1.01973
1.02294
1.02609
1.02927
1.03251
1.03577
1.03904
1.04228
1.04546
1.04853
1.0514
1.05399
1.05596
1.05736
1.00138
1.00415
1.0069
1.00967
1.01246
1.01528
1.01815
1.02093
1.02363
1.02631
1.02895
1.0315
1.03391
1.03612
1.03804
1.03957
1.04054
1.0408
1.0399
1.03773
1.00127
1.00384
1.00629
1.00877
1.01126
1.01371
1.01601
1.01825
1.02042
1.02246
1.02433
1.02596
1.02726
1.02813
1.02845
1.02799
1.02657
1.02377
1.01916
1.01216
1.00111
1.0034
1.00555
1.00755
1.00952
1.01143
1.01325
1.01493
1.01642
1.01767
1.01858
1.01904
1.01895
1.01808
1.01635
1.01335
1.00907
1.00251
0.993767
0.980227
1.00092
1.00269
1.00435
1.00589
1.00735
1.0087
1.00991
1.01089
1.01156
1.01182
1.01157
1.01063
1.00892
1.00601
1.00187
0.995487
0.987242
0.974604
0.959701
0.936033
1.00056
1.00188
1.00313
1.00413
1.00494
1.00559
1.00605
1.00621
1.00595
1.0051
1.00358
1.00109
0.997537
0.992324
0.985452
0.975518
0.963032
0.944099
0.920576
0.87952
1.00025
1.00103
1.00171
1.00211
1.00224
1.00218
1.00192
1.00127
1.0001
0.998193
0.995473
0.991595
0.986509
0.979475
0.970641
0.958373
0.943496
0.922226
0.897758
0.862848
1.00049
1.00059
1.00043
0.999944
0.999228
0.998438
0.997486
0.996064
0.99399
0.991042
0.987195
0.982052
0.975625
0.967088
0.956742
0.942898
0.926749
0.904847
0.880968
0.848258
0.999829
1.00033
0.999884
0.998072
0.996122
0.994523
0.992914
0.99072
0.987729
0.983742
0.978804
0.972478
0.964834
0.954986
0.943394
0.928352
0.911357
0.889004
0.865373
0.833499
0.998768
0.99945
0.998387
0.995146
0.992243
0.99016
0.988083
0.985184
0.981301
0.976319
0.970365
0.96296
0.954229
0.943252
0.930631
0.914654
0.897022
0.874342
0.850882
0.819958
1.00091
1.00027
0.995673
0.990847
0.987688
0.985601
0.983199
0.97958
0.974799
0.968876
0.961992
0.953617
0.943922
0.931977
0.9185
0.901804
0.88369
0.860899
0.837663
0.807801
0.995241
0.992465
0.989082
0.985084
0.982962
0.981462
0.978711
0.974178
0.968418
0.961594
0.953861
0.944607
0.93404
0.921259
0.907055
0.88982
0.871351
0.848631
0.825625
0.796804
0.999581
0.986443
0.974323
0.97316
0.976309
0.977214
0.974315
0.968761
0.962051
0.954459
0.946004
0.935987
0.924642
0.911154
0.896336
0.87872
0.859989
0.837462
0.814655
0.786825
0.996029
0.973458
0.959335
0.963423
0.971723
0.974385
0.970859
0.964072
0.956353
0.947984
0.938799
0.928039
0.915955
0.901843
0.886488
0.868595
0.849654
0.827381
0.804734
0.777829
0.995488
0.969413
0.95465
0.960955
0.970677
0.972908
0.968094
0.960116
0.951486
0.942334
0.932369
0.92086
0.908074
0.893418
0.877598
0.859505
0.840393
0.818389
0.795876
0.769795
0.999016
0.981279
0.970581
0.97312
0.976192
0.97347
0.966191
0.957129
0.947728
0.937738
0.926878
0.914572
0.901108
0.885971
0.869753
0.851501
0.832253
0.810486
0.788101
0.762697
0.993517
0.99922
1.00639
1.00153
0.98988
0.977341
0.966086
0.955752
0.945526
0.934524
0.922593
0.90939
0.895238
0.879637
0.863061
0.844645
0.825283
0.803671
0.781421
0.7565
1.00261
1.02393
1.03516
1.0223
0.999778
0.979982
0.965694
0.954465
0.94366
0.931819
0.918945
0.904945
0.890213
0.874219
0.857368
0.838794
0.819366
0.797826
0.775742
0.751104
1.00779
1.037
1.04956
1.03259
1.00441
0.980578
0.96462
0.952982
0.941847
0.929378
0.91576
0.901116
0.885921
0.869601
0.852532
0.833808
0.814346
0.792823
0.770923
0.746447
1.00923
1.04313
1.0575
1.03734
1.00505
0.97884
0.962341
0.95078
0.939578
0.926748
0.912653
0.897583
0.882058
0.865492
0.848248
0.829419
0.809934
0.788466
0.766723
0.742466
1.00449
1.04222
1.0636
1.04228
1.00557
0.976877
0.959513
0.947729
0.936421
0.923529
0.909323
0.894117
0.878406
0.861682
0.844288
0.825436
0.805928
0.784623
0.762975
0.739098
0.979199
0.989298
1.016
1.01585
0.998194
0.97749
0.960217
0.946119
0.93335
0.920289
0.906346
0.891239
0.875363
0.858484
0.840906
0.822062
0.802504
0.781429
0.759807
0.73637
1.00084
0.951565
0.914574
0.929392
0.956053
0.965735
0.95786
0.943106
0.928616
0.915452
0.902396
0.888178
0.872645
0.855823
0.838134
0.819342
0.799764
0.77893
0.757339
0.734268
1.00484
0.952993
0.906157
0.915708
0.944676
0.958153
0.953352
0.940528
0.926742
0.913614
0.900444
0.886241
0.870761
0.85402
0.836294
0.817541
0.797937
0.777268
0.755714
0.73291
0.975977
0.989457
1.01878
1.00927
0.981671
0.960825
0.948935
0.939111
0.927648
0.914453
0.900318
0.885497
0.869852
0.853152
0.835424
0.81669
0.797046
0.776453
0.754921
0.732311
0.835603
0.783756
0.730516
0.672349
0.610306
0.54835
0.488546
0.431566
0.378246
0.329513
0.829093
0.775604
0.719608
0.664149
0.606057
0.547458
0.491119
0.437651
0.387832
0.342505
0.817432
0.766186
0.709503
0.656259
0.602558
0.547657
0.494431
0.444076
0.397294
0.354234
0.805056
0.75748
0.701561
0.649442
0.599207
0.547923
0.497586
0.449855
0.405594
0.364602
0.793122
0.748907
0.694704
0.643501
0.595923
0.548082
0.500594
0.455152
0.413025
0.373822
0.781892
0.740549
0.688676
0.638612
0.593032
0.548187
0.503436
0.460073
0.419746
0.382054
0.771415
0.732494
0.683231
0.634619
0.590622
0.548248
0.506026
0.464605
0.425824
0.389408
0.761705
0.724838
0.678274
0.631394
0.588767
0.548357
0.508351
0.468732
0.43131
0.395984
0.752803
0.717675
0.67377
0.628811
0.587445
0.548561
0.510399
0.472412
0.436215
0.40184
0.74476
0.711099
0.669708
0.626738
0.586568
0.548858
0.512161
0.475608
0.44053
0.407015
0.737654
0.705225
0.666087
0.625038
0.585996
0.549198
0.513625
0.478288
0.444217
0.411536
0.731551
0.700156
0.662901
0.62356
0.585551
0.549489
0.514778
0.480456
0.447247
0.415241
0.726402
0.695878
0.660087
0.622146
0.585056
0.549631
0.515612
0.48215
0.449751
0.41848
0.722088
0.692261
0.657542
0.62069
0.584401
0.549569
0.516149
0.483432
0.451779
0.421192
0.718359
0.689018
0.65511
0.619146
0.583582
0.54932
0.516441
0.484372
0.453372
0.423402
0.71498
0.685912
0.652708
0.617575
0.582702
0.548979
0.516571
0.485047
0.454596
0.425173
0.711983
0.683008
0.650442
0.61611
0.581883
0.548629
0.516596
0.485504
0.455496
0.42654
0.709549
0.680543
0.648465
0.614795
0.581097
0.54821
0.51646
0.485705
0.456056
0.427496
0.707965
0.678856
0.647017
0.613716
0.580312
0.547629
0.516052
0.485545
0.456185
0.427966
0.707306
0.678155
0.646382
0.613155
0.579771
0.547084
0.515525
0.485115
0.455905
0.427903
)
;

boundaryField
{
    bottom
    {
        type            symmetryPlane;
    }
    right
    {
        type            fixedValue;
        value           uniform 0;
    }
    top
    {
        type            symmetryPlane;
    }
    left
    {
        type            fixedValue;
        value           uniform 1;
    }
    cylinder
    {
        type            zeroGradient;
    }
    defaultFaces
    {
        type            empty;
    }
}


// ************************************************************************* //
