/*--------------------------------*- C++ -*----------------------------------*\
| =========                 |                                                 |
| \\      /  F ield         | OpenFOAM: The Open Source CFD Toolbox           |
|  \\    /   O peration     | Version:  4.1                                   |
|   \\  /    A nd           | Web:      www.OpenFOAM.org                      |
|    \\/     M anipulation  |                                                 |
\*---------------------------------------------------------------------------*/
FoamFile
{
    version     2.0;
    format      ascii;
    class       surfaceScalarField;
    location    "12";
    object      phi;
}
// * * * * * * * * * * * * * * * * * * * * * * * * * * * * * * * * * * * * * //

dimensions      [0 3 -1 0 0 0 0];

internalField   nonuniform List<scalar> 
3890
(
0.000271975
0.00157603
-0.001848
0.001968
-3.98447e-05
-0.00165618
0.00566135
-0.00473754
0.0010442
0.0116354
-0.0115165
0.00554241
0.0197823
-0.0194066
0.0112597
0.0296397
-0.0274761
0.0176187
0.0405558
-0.0350105
0.0240943
0.0519786
-0.0415894
0.0301665
0.0633432
-0.0473437
0.0359792
-0.0511816
0.0404228
0.074102
0.000535602
0.00104043
0.00309893
-0.00260317
0.00825288
-0.0098915
0.0159951
-0.0192587
0.0257175
-0.0291289
0.0364993
-0.038258
0.0474602
-0.0459713
0.057986
-0.0521152
0.0675017
-0.0568595
-0.0601674
0.0764875
0.000894968
0.000145457
0.00450634
-0.00621454
0.0111786
-0.0165637
0.020315
-0.0283951
0.0307013
-0.0395153
0.0411406
-0.0486973
0.0508323
-0.055663
0.0594173
-0.0607001
0.0669004
-0.0643426
-0.0669681
0.0737011
0.00134327
-0.00119782
0.0060951
-0.0109664
0.0140442
-0.0245128
0.0237902
-0.0381412
0.0337154
-0.0494404
0.0427473
-0.0577292
0.0504911
-0.0634069
0.0570527
-0.0672617
0.0627556
-0.0700455
-0.0722287
0.0680161
0.00186415
-0.00306197
0.0076875
-0.0167897
0.0163475
-0.0331728
0.0257481
-0.0475417
0.0343255
-0.0580178
0.0414811
-0.0648848
0.0473179
-0.0692437
0.0522451
-0.072189
0.0566891
-0.0744895
-0.0765956
0.061056
0.00241817
-0.00548014
0.00903711
-0.0234087
0.017658
-0.0417937
0.025936
-0.0558197
0.0327682
-0.06485
0.0381025
-0.070219
0.0423702
-0.0735115
0.0460662
-0.0758849
0.0495671
-0.0779904
-0.0800979
0.0530694
0.00294043
-0.00842057
0.00990044
-0.0303687
0.0177908
-0.0496841
0.024531
-0.06256
0.029613
-0.069932
0.033382
-0.073988
0.0363932
-0.0765227
0.0390933
-0.078585
0.0417374
-0.0806346
-0.0828007
0.0444403
0.00334808
-0.0117686
0.0101252
-0.0371458
0.0168213
-0.0563802
0.0219198
-0.0676584
0.0254208
-0.0734331
0.0278799
-0.0764471
0.0298419
-0.0784846
0.0316503
-0.0803935
0.0334621
-0.0824463
-0.0846588
0.0353202
0.00356399
-0.0153326
0.00968639
-0.0432682
0.0149733
-0.0616671
0.0185032
-0.0711883
0.0206286
-0.0755585
0.0219726
-0.0777911
0.0230019
-0.0795138
0.0239565
-0.0813481
0.0249159
-0.0834057
-0.0856377
0.0258948
0.0035441
-0.0188767
0.00868589
-0.04841
0.0125144
-0.0654956
0.0146198
-0.0732937
0.0155533
-0.0764921
0.015914
-0.0781518
0.0160691
-0.0796689
0.0161741
-0.0814532
0.016266
-0.0834975
0.0163444
-0.0857162
-0.00050702
0.00050702
-0.00154582
0.0010388
-0.00287189
0.00132606
-0.00434829
0.0014764
-0.00589929
0.001551
-0.00748907
0.00158979
-0.00910819
0.00161911
-0.0107644
0.00165619
-0.0124795
0.00171508
0.00181284
-0.0142923
-0.000454803
0.000961823
-0.00138966
0.00197366
-0.00257714
0.00251354
-0.00387935
0.00277861
-0.00521512
0.00288676
-0.00654049
0.00291516
-0.00783697
0.00291559
-0.00910499
0.00292421
-0.01036
0.00297012
0.00309433
-0.0116415
-0.000363838
0.00132566
-0.00111791
0.00272773
-0.00205613
0.00345177
-0.00304387
0.00376634
-0.00399307
0.00383596
-0.00484629
0.00376838
-0.0055681
0.0036374
-0.00614364
0.00349975
-0.00657789
0.00340436
0.00340367
-0.00688723
-0.000259672
0.00158533
-0.000792431
0.00326049
-0.00141641
0.00407574
-0.00200253
0.00435246
-0.00245806
0.00429149
-0.00271269
0.00402301
-0.00271015
0.00363486
-0.002408
0.00319761
-0.00178733
0.00278369
0.00252778
-0.000911436
-0.000166798
0.00175213
-0.000476117
0.00356981
-0.000762356
0.00436198
-0.000901674
0.00449178
-0.00079892
0.00418874
-0.000374407
0.0035985
0.000445261
0.0028152
0.0017302
0.00191267
0.00354407
0.000969813
0.000163639
0.00590821
-0.000101006
0.00185314
-0.000206661
0.00367546
-0.000148292
0.00430361
0.000201664
0.00414182
0.000948001
0.0034424
0.00218149
0.00236502
0.00398905
0.00100764
0.00645198
-0.000550261
0.00965543
-0.00223364
-0.00400094
0.01382
-6.35393e-05
0.00191667
2.30668e-05
0.00358886
0.000452403
0.00387428
0.00138672
0.0032075
0.0029583
0.00187082
0.00527927
4.40445e-05
0.0084477
-0.0021608
0.0125297
-0.00463229
0.0175443
-0.00724822
-0.0103936
0.023937
-4.01079e-05
0.00195678
0.000257771
0.00329098
0.00115614
0.00297591
0.00286908
0.00149456
0.00557852
-0.000838626
0.00942511
-0.00380254
0.0144776
-0.00721332
0.020727
-0.0108817
0.0280856
-0.0146068
-0.019228
0.03692
8.45784e-06
0.00194832
0.000599495
0.00269994
0.00214863
0.00142678
0.00494447
-0.00130128
0.00920212
-0.00509628
0.0150199
-0.00962033
0.0223605
-0.0145539
0.0310126
-0.0195338
0.0408484
-0.0244426
-0.0297669
0.0513873
0.000100321
0.00114409
0.00361506
0.00785619
0.0140196
0.022018
0.0315584
0.0421912
0.0537278
0.0643837
-0.0154588
0.00116649
-0.0166208
0.00116205
-0.0177523
0.0011315
-0.0188454
0.00109307
-0.0198933
0.00104793
-0.0208888
0.000995442
-0.0218241
0.000935322
-0.0226917
0.000867567
-0.0234842
0.000792517
-0.0241951
0.000710905
-0.024819
0.000623897
-0.0253521
0.000533134
-0.0257929
0.000440787
-0.0261425
0.000349584
-0.0264053
0.000262756
-0.0265892
0.00018394
-0.0267064
0.000117174
-0.0267727
6.63497e-05
-0.026805
3.23047e-05
1.1377e-05
-0.0126513
0.00217627
-0.0136777
0.00218843
-0.0146972
0.00215102
-0.0157037
0.00209962
-0.0166909
0.0020351
-0.017651
0.00195557
-0.0185759
0.00186018
-0.0194569
0.00174857
-0.0202854
0.00162098
-0.0210528
0.00147831
-0.0217512
0.0013223
-0.0223736
0.00115558
-0.0229147
0.000981887
-0.0233713
0.00080618
-0.0237433
0.000634712
-0.0240342
0.00047487
-0.0242522
0.000335159
-0.0244111
0.000225273
-0.0245312
0.000152335
0.000111819
-0.00759499
0.00288403
-0.00834029
0.00293373
-0.00911462
0.00292535
-0.00991595
0.00290095
-0.0107394
0.00285852
-0.0115785
0.00279466
-0.0124255
0.00270718
-0.0132717
0.00259486
-0.014108
0.00245721
-0.0149241
0.00229447
-0.0157097
0.00210785
-0.0164538
0.00189973
-0.0171459
0.001674
-0.0177761
0.00143637
-0.0183362
0.0011948
-0.0188208
0.000959492
-0.0192285
0.000742773
-0.0195642
0.000561022
-0.0198479
0.00043601
0.000375631
-0.00115378
0.00312637
-0.00150665
0.0032866
-0.00191919
0.00333789
-0.00238565
0.00336742
-0.00291181
0.00338467
-0.00349636
0.00337921
-0.00413409
0.00334491
-0.00481883
0.0032796
-0.0055437
0.00318207
-0.00630057
0.00305135
-0.00707984
0.00288712
-0.00787041
0.0026903
-0.00865973
0.00246331
-0.00943385
0.00221049
-0.0101778
0.00193877
-0.0108767
0.0016584
-0.0115161
0.00138218
-0.0120836
0.00112847
-0.0125796
0.000932014
0.000848345
0.00607263
0.00296195
0.00611756
0.00324166
0.00609326
0.00336219
0.00601098
0.0034497
0.0058565
0.00353915
0.00562331
0.0036124
0.00531242
0.00365581
0.00492557
0.00366644
0.00446419
0.00364345
0.00393071
0.00358483
0.00332929
0.00348854
0.00266592
0.00335367
0.00194857
0.00318067
0.00118756
0.00297149
0.000396269
0.00273007
-0.00040836
0.00246303
-0.00120712
0.00218094
-0.00197604
0.0018974
-0.00268374
0.00163971
0.00147472
0.0142625
0.00251948
0.0145666
0.00293755
0.0148167
0.00311208
0.0150344
0.00323198
0.0151956
0.00337795
0.0152883
0.00351973
0.0153111
0.00363305
0.0152614
0.00371612
0.0151346
0.00377025
0.0149266
0.00379285
0.0146348
0.00378035
0.014258
0.00373039
0.0137967
0.003642
0.0132529
0.0035153
0.0126311
0.0033518
0.0119391
0.0031551
0.0111887
0.00293131
0.0103977
0.00268841
0.00960142
0.00243598
0.00223958
0.0243459
0.00211055
0.0246623
0.00262119
0.0249715
0.00280283
0.0252945
0.00290905
0.0255948
0.00307763
0.0258625
0.00325204
0.0260969
0.0033986
0.0262914
0.00352164
0.0264359
0.00362573
0.0265215
0.00370726
0.0265405
0.00376134
0.0264861
0.00378481
0.0263522
0.00377588
0.026134
0.00373355
0.0258277
0.0036581
0.0254313
0.00355143
0.0249451
0.00341753
0.0243702
0.00326336
0.023712
0.00309419
0.00293214
0.0369992
0.00203139
0.0371212
0.00249917
0.0373328
0.00259122
0.0375991
0.00264275
0.0378737
0.00280298
0.0381621
0.00296368
0.0384626
0.00309809
0.0387625
0.00322178
0.0390489
0.00333928
0.0393118
0.00344442
0.0395414
0.00353168
0.0397287
0.00359756
0.0398646
0.00363999
0.0399411
0.00365698
0.0399506
0.00364865
0.0398866
0.00361538
0.039742
0.00356215
0.0395137
0.00349164
0.0391853
0.0034226
0.00334093
0.0512136
0.00220513
0.0512648
0.00244796
0.0515113
0.00234469
0.0517923
0.0023617
0.0520904
0.00250497
0.0524222
0.00263183
0.0527745
0.00274579
0.0531335
0.00286275
0.0534932
0.00297964
0.053849
0.00308855
0.0541954
0.00318533
0.0545264
0.00326656
0.0548354
0.00333095
0.0551168
0.00337556
0.0553632
0.00340228
0.0555699
0.00340872
0.0557277
0.00340435
0.0558354
0.00338394
0.0558818
0.00337621
0.00337107
0.0646966
0.00189226
0.0653901
0.00175445
0.0659808
0.00175398
0.0664807
0.00186183
0.0669865
0.00199915
0.0674853
0.00213301
0.0679676
0.00226345
0.0684393
0.00239104
0.068906
0.00251294
0.0693706
0.00262401
0.0698335
0.00272237
0.0702959
0.00280423
0.0707561
0.00287066
0.0712143
0.00291745
0.0716663
0.00295027
0.0721118
0.0029632
0.0725456
0.00297053
0.072967
0.00296254
0.0733788
0.00296439
0.00297291
0.0896674
0.00283382
-0.090609
0.0886579
0.00276396
0.0877375
0.00267441
0.0869527
0.00264663
0.0862885
0.00266337
0.0857191
0.00270243
0.0852264
0.00275614
0.0848001
0.00281737
0.0844316
0.00288143
0.0841136
0.00294195
0.0838382
0.00299776
0.0835998
0.00304269
0.0833909
0.0030795
0.0832076
0.0031008
0.0830422
0.0031157
0.0828918
0.00311361
0.0827496
0.00311264
0.0826144
0.0030978
0.0824852
0.00309356
0.00308436
0.0994056
0.00301973
-0.0995915
0.0990955
0.00307405
0.0987108
0.00305917
0.0983309
0.00302654
0.0979791
0.00301516
0.097654
0.00302748
0.0973546
0.00305552
0.0970825
0.0030895
0.0968374
0.00312658
0.0966185
0.00316076
0.0964228
0.00319347
0.0962485
0.003217
0.096091
0.00323706
0.0959489
0.00324292
0.0958166
0.00324791
0.0956944
0.00323586
0.0955763
0.00323074
0.0954662
0.00320791
0.0953579
0.0032018
0.00318192
0.106308
0.00319738
-0.106486
0.106217
0.00316573
0.106131
0.00314455
0.106048
0.00310931
0.105978
0.00308519
0.105923
0.0030824
0.105881
0.00309768
0.105851
0.0031203
0.10583
0.00314756
0.105818
0.0031723
0.105814
0.00319773
0.105816
0.00321476
0.105822
0.00323143
0.10583
0.00323446
0.105838
0.00324004
0.105846
0.0032283
0.10585
0.00322633
0.105853
0.00320487
0.105852
0.0032023
0.00318313
0.111772
0.00326733
-0.111842
0.111792
0.00314537
0.111852
0.00308455
0.111924
0.00303751
0.112008
0.00300127
0.112108
0.00298204
0.112224
0.00298157
0.112354
0.00299117
0.112493
0.00300857
0.112639
0.00302543
0.112792
0.00304542
0.112948
0.00305891
0.113105
0.00307453
0.11326
0.00307866
0.113413
0.00308694
0.113561
0.00308029
0.113705
0.00308281
0.11384
0.00306933
0.113973
0.00307027
0.00305927
0.116573
0.00320087
-0.116507
0.116677
0.00304151
0.116815
0.00294674
0.11697
0.00288229
0.117137
0.00283405
0.117319
0.00280046
0.117516
0.00278436
0.117728
0.00277973
0.117951
0.00278533
0.118184
0.00279279
0.118424
0.00280526
0.118669
0.00281379
0.118917
0.00282591
0.119166
0.0028299
0.119415
0.00283818
0.119659
0.00283592
0.119902
0.00284031
0.120136
0.00283473
0.12037
0.00283701
0.00283532
0.121287
0.00305729
-0.121144
0.121441
0.00288771
0.121618
0.00277007
0.121812
0.00268765
0.122019
0.00262712
0.122238
0.00258163
0.12247
0.00255219
0.122716
0.00253441
0.122973
0.00252795
0.12324
0.00252551
0.123516
0.0025292
0.123799
0.00253153
0.124087
0.002538
0.124377
0.0025398
0.124669
0.00254535
0.124961
0.0025448
0.125253
0.00254835
0.12554
0.00254739
0.125828
0.00254936
0.00255336
0.126186
0.00287849
-0.126007
0.126368
0.00270614
0.126563
0.00257504
0.126772
0.00247845
0.126992
0.00240664
0.127223
0.00235113
0.127464
0.00231081
0.127717
0.00228184
0.12798
0.00226433
0.128254
0.00225243
0.128535
0.00224733
0.128824
0.00224304
0.129119
0.00224309
0.129417
0.00224128
0.12972
0.00224273
0.130023
0.00224147
0.130329
0.00224274
0.130633
0.00224305
0.130939
0.0022439
0.00224938
0.131288
0.00267452
-0.131084
0.13149
0.00250448
0.131697
0.00236804
0.131912
0.00226266
0.132137
0.00218212
0.132369
0.00211863
0.13261
0.00206981
0.13286
0.00203201
0.133119
0.00200529
0.133387
0.00198516
0.133662
0.00197217
0.133943
0.00196162
0.134231
0.0019556
0.134522
0.00194967
0.134818
0.00194687
0.135116
0.00194348
0.135417
0.00194214
0.135718
0.00194154
0.136021
0.00194109
0.00194545
0.136475
0.00244511
-0.136245
0.136697
0.0022823
0.136919
0.00214641
0.137144
0.00203727
0.137375
0.00195139
0.137611
0.00188247
0.137853
0.00182775
0.138101
0.00178368
0.138357
0.00175011
0.138618
0.00172359
0.138886
0.00170432
0.139159
0.00168858
0.139437
0.00167755
0.139719
0.0016679
0.140004
0.00166148
0.140292
0.00165569
0.140582
0.00165207
0.140874
0.00164982
0.141167
0.00164825
0.00165073
0.141595
0.00218763
-0.141337
0.141842
0.00203457
0.142086
0.00190307
0.142328
0.00179447
0.142573
0.00170698
0.14282
0.00163568
0.14307
0.00157786
0.143323
0.00153027
0.143581
0.00149248
0.143842
0.00146186
0.144108
0.00143834
0.144378
0.00141908
0.144651
0.00140457
0.144926
0.00139233
0.145204
0.00138338
0.145484
0.0013759
0.145766
0.00137069
0.146048
0.00136728
0.146331
0.00136495
0.00136617
0.14654
0.00189665
-0.146249
0.14682
0.00175491
0.147092
0.00163085
0.14736
0.00152672
0.147625
0.00144142
0.14789
0.0013711
0.148154
0.0013132
0.14842
0.00126501
0.148686
0.00122578
0.148955
0.00119366
0.149225
0.0011682
0.149496
0.0011475
0.14977
0.00113129
0.150044
0.00111817
0.150319
0.001108
0.150595
0.00110025
0.150871
0.00109432
0.151147
0.00109105
0.151424
0.00108842
0.00108985
0.151309
0.00156872
-0.150981
0.151623
0.00144084
0.151927
0.00132759
0.152222
0.00123169
0.152511
0.00115228
0.152795
0.0010864
0.153077
0.00103155
0.153356
0.000985802
0.153634
0.000947964
0.153911
0.000917108
0.154187
0.00089208
0.154462
0.000872301
0.154737
0.000856257
0.155011
0.000844243
0.155285
0.000834252
0.155557
0.000827976
0.155829
0.000822253
0.156099
0.000820821
0.156369
0.000818325
0.000821788
0.156031
0.00121189
-0.155674
0.15637
0.00110128
0.156696
0.00100234
0.157009
0.000918105
0.157314
0.000847804
0.157611
0.00078949
0.157901
0.000740611
0.158187
0.000700138
0.158469
0.000666273
0.158747
0.000639232
0.159022
0.000616833
0.159294
0.000600143
0.159564
0.000585982
0.159832
0.000576913
0.160098
0.000568351
0.16036
0.000565158
0.160622
0.000560448
0.160881
0.00056235
0.161139
0.000560372
0.000567381
0.160908
0.000852806
-0.160549
0.161247
0.000762031
0.16157
0.000679946
0.161878
0.000609654
0.162175
0.000550604
0.162463
0.000501959
0.162742
0.000461046
0.163015
0.000427801
0.163281
0.000399704
0.163542
0.000378196
0.163799
0.000359926
0.164052
0.00034773
0.164301
0.000336588
0.164546
0.000331559
0.16479
0.00032523
0.165029
0.00032596
0.165266
0.000322758
0.1655
0.000328657
0.165733
0.000327419
0.000338531
0.166055
0.000532255
-0.165735
0.166356
0.000461404
0.166639
0.000396548
0.166908
0.000340635
0.167166
0.000293324
0.167413
0.000254818
0.167652
0.000222389
0.167882
0.000196842
0.168107
0.00017501
0.168326
0.000159402
0.16854
0.000145679
0.16875
0.000138112
0.168956
0.000130216
0.169159
0.000129132
0.169359
0.000125133
0.169555
0.000129431
0.16975
0.000127748
0.169942
0.000137043
0.170133
0.000136534
0.000150923
0.171318
0.000286109
-0.171072
0.171547
0.000232747
0.17176
0.000183467
0.17196
0.000140766
0.172149
0.000104374
0.172329
7.50565e-05
0.172501
5.03749e-05
0.172666
3.1688e-05
0.172825
1.54905e-05
0.17298
4.89339e-06
0.17313
-4.76166e-06
0.173277
-8.71734e-06
0.173421
-1.39298e-05
0.173563
-1.22393e-05
0.173702
-1.44114e-05
0.17384
-7.98067e-06
0.173976
-8.53689e-06
0.17411
2.42251e-06
0.174245
2.43413e-06
1.80688e-05
0.176268
0.000126224
-0.176108
0.176413
8.72127e-05
0.176546
5.12289e-05
0.176666
2.01925e-05
0.176777
-6.11564e-06
0.176879
-2.75796e-05
0.176975
-4.5504e-05
0.177065
-5.85344e-05
0.177151
-7.00046e-05
0.177232
-7.67947e-05
0.177311
-8.34692e-05
0.177388
-8.50532e-05
0.177462
-8.83081e-05
0.177535
-8.54353e-05
0.177607
-8.6481e-05
0.177679
-7.97355e-05
0.17775
-7.97014e-05
0.177822
-6.92178e-05
0.177893
-6.89656e-05
-5.4587e-05
0.180412
4.12545e-05
-0.180327
0.180485
1.42594e-05
0.180546
-1.01206e-05
0.180596
-3.00766e-05
0.180638
-4.75547e-05
0.180671
-6.13659e-05
0.180699
-7.30747e-05
0.180722
-8.1335e-05
0.180741
-8.87052e-05
0.180756
-9.26962e-05
0.18077
-9.68743e-05
0.180782
-9.72631e-05
0.180793
-9.91321e-05
0.180804
-9.64248e-05
0.180814
-9.6851e-05
0.180826
-9.14044e-05
0.180837
-9.11689e-05
0.180851
-8.30559e-05
0.180865
-8.27657e-05
-7.18666e-05
0.183385
9.89303e-06
-0.183353
0.183404
-5.49934e-06
0.183414
-1.94351e-05
0.183413
-2.93291e-05
0.183403
-3.76675e-05
0.183386
-4.43481e-05
0.183363
-5.0131e-05
0.183336
-5.4136e-05
0.183305
-5.77444e-05
0.183272
-5.9575e-05
0.183237
-6.15678e-05
0.183201
-6.15491e-05
0.183164
-6.23726e-05
0.183128
-6.0771e-05
0.183092
-6.08787e-05
0.183059
-5.78752e-05
0.183025
-5.76595e-05
0.182996
-5.32878e-05
0.182966
-5.30587e-05
-4.72091e-05
0.184941
-0.184931
0.184936
0.184916
0.184887
0.184849
0.184805
0.184755
0.184701
0.184643
0.184583
0.184522
0.18446
0.184398
0.184337
0.184276
0.184218
0.184161
0.184107
0.184054
0.0892357
0.0152248
-0.0881161
0.0903964
0.0247341
0.0916166
0.0341
0.0928487
0.0432082
0.0941266
0.0517915
0.0953161
0.0598665
0.096193
0.0671393
0.0967684
0.0731257
0.0941037
0.0791522
0.0775967
0.0918976
0.0142074
-0.0908802
0.0930017
0.02363
0.0942259
0.0328758
0.0955345
0.0418995
0.0968806
0.0504454
0.0984053
0.0583419
0.0995219
0.0660226
0.101203
0.0714441
0.101285
0.0790707
0.0792901
0.0948069
0.0132833
-0.0938828
0.0958727
0.0225643
0.0970683
0.0316802
0.0984542
0.0405137
0.0998275
0.0490721
0.101572
0.0565975
0.103011
0.0645838
0.104866
0.0695885
0.106511
0.0774261
0.0793152
0.0978504
0.0124254
-0.0969924
0.0989185
0.0214961
0.100118
0.0304802
0.101587
0.0390451
0.10306
0.047599
0.104866
0.0547914
0.106641
0.0628093
0.108389
0.0678407
0.110627
0.0751872
0.0781008
0.10094
0.0116041
-0.100119
0.102035
0.020401
0.103302
0.0292136
0.104853
0.0374941
0.106509
0.0459424
0.108339
0.0529619
0.110383
0.0607653
0.112206
0.0660179
0.11459
0.0728028
0.0761839
0.104002
0.0107913
-0.103189
0.105134
0.0192698
0.106514
0.0278335
0.108162
0.0358461
0.11004
0.044064
0.111996
0.051006
0.114273
0.0584883
0.116379
0.0639113
0.118852
0.0703304
0.073892
0.106971
0.00996556
-0.106145
0.108148
0.0180927
0.109659
0.0263217
0.111441
0.0340641
0.113547
0.0419581
0.115751
0.0488024
0.118272
0.0559667
0.120741
0.0614425
0.12342
0.0676519
0.0713045
0.109801
0.00911607
-0.108951
0.111037
0.0168562
0.112679
0.0246801
0.11463
0.0321129
0.116959
0.0396294
0.119465
0.0462958
0.122269
0.0531629
0.125118
0.0585937
0.128144
0.0646258
0.0683646
0.112493
0.00824026
-0.111617
0.113798
0.0155509
0.115559
0.0229195
0.117689
0.0299831
0.120232
0.037086
0.123039
0.0434894
0.126162
0.0500401
0.129402
0.0553534
0.132867
0.061161
0.0649856
0.115109
0.0073415
-0.114211
0.11648
0.0141801
0.118343
0.0210566
0.120633
0.0276929
0.123375
0.0343441
0.126451
0.0404133
0.129901
0.0465905
0.13353
0.0517246
0.137458
0.0572328
0.0611063
0.117774
0.00643005
-0.116862
0.119194
0.0127599
0.121136
0.0191145
0.123552
0.0252766
0.126464
0.0314328
0.129766
0.0371103
0.13351
0.0428466
0.137497
0.047738
0.141857
0.0528726
0.0567144
0.120654
0.00551882
-0.119743
0.122097
0.0113163
0.124091
0.0171205
0.126597
0.022771
0.129639
0.0283908
0.133122
0.0336278
0.137101
0.0388669
0.141393
0.0434462
0.146118
0.048148
0.0518507
0.123895
0.00464041
-0.123017
0.125336
0.00987563
0.127356
0.0151001
0.129924
0.0202032
0.133063
0.0252515
0.136689
0.0300017
0.140851
0.0347053
0.145395
0.0389019
0.150412
0.0431316
0.0465884
0.127522
0.00382545
-0.126707
0.12894
0.00845748
0.130973
0.0130665
0.133596
0.0175803
0.136822
0.0220253
0.140584
0.0262401
0.144908
0.0303811
0.149679
0.0341309
0.154949
0.0378618
0.0409884
0.131349
0.00308908
-0.130612
0.132742
0.00706435
0.134794
0.011014
0.137487
0.0148871
0.14082
0.0186931
0.144739
0.0223204
0.149251
0.0258697
0.154265
0.029117
0.159805
0.032321
0.0350591
0.135015
0.00242052
-0.134347
0.136399
0.00568013
0.138493
0.0089203
0.141282
0.0120977
0.144754
0.0152215
0.148867
0.0182078
0.15361
0.021126
0.158908
0.0238191
0.164772
0.0264576
0.0287586
0.138162
0.00178965
-0.137531
0.139561
0.00428162
0.141717
0.00676364
0.14462
0.00919534
0.148251
0.0115905
0.152574
0.0138849
0.157574
0.0161259
0.163181
0.018212
0.169398
0.0202404
0.0220488
0.140615
0.00117429
-0.14
0.142037
0.00285944
0.144259
0.00454193
0.147266
0.00618822
0.151044
0.00781253
0.155558
0.00937121
0.160792
0.0108921
0.166684
0.0123195
0.173228
0.0136967
0.01495
0.142354
0.000577731
-0.141757
0.143786
0.00142709
0.14605
0.00227818
0.149128
0.00310971
0.15301
0.00393099
0.157661
0.00471989
0.163064
0.00548888
0.169169
0.00621471
0.175955
0.00691083
0.00755161
0.143299
-0.142722
0.144726
0.147005
0.150114
0.154045
0.158765
0.164254
0.170469
0.17738
0.0420556
0.0518461
-0.0458468
-0.0480548
0.036096
0.0505755
-0.0446159
0.03053
0.0497616
-0.0441956
0.025266
0.0494944
-0.0442304
0.0201922
0.0496892
-0.0446154
0.0152443
0.0503311
-0.0453832
0.0104099
0.0512813
-0.046447
0.00581569
0.0513974
-0.0468031
0.00195317
0.0465317
-0.0426692
0.0266671
-0.024714
0.0401142
0.0577314
-0.0459996
0.0343482
0.0563414
0.028854
0.0552558
0.0236712
0.0546772
0.0187286
0.0546318
0.0139507
0.055109
0.00932921
0.0559028
0.00502746
0.0556991
0.0015681
0.049991
0.0282352
0.0372753
0.0632587
-0.0428025
0.0318136
0.0618032
0.0265401
0.0605293
0.0215384
0.0596789
0.0167927
0.0593775
0.0122501
0.0596516
0.00792215
0.0602308
0.00401698
0.0596043
0.0010814
0.0529266
0.0293166
0.0333738
0.0683923
-0.0385074
0.02834
0.066837
0.0234465
0.0654227
0.0187729
0.0643526
0.0143377
0.0638126
0.0101226
0.0638668
0.00617933
0.0641741
0.00278281
0.0630008
0.000492245
0.0552172
0.0298089
0.0284952
0.0730613
-0.0331643
0.0239589
0.0713733
0.0195588
0.0698229
0.0153434
0.0685679
0.0113392
0.0678168
0.00755841
0.0676476
0.00409887
0.0676336
0.00131439
0.0657853
-0.000179586
0.0567112
0.0296293
0.0226714
0.0771479
-0.026758
0.018732
0.0753127
0.0149264
0.0736284
0.0112772
0.0722172
0.00781032
0.0712837
0.00457071
0.0708872
0.00171688
0.0704874
-0.000363636
0.0678658
-0.000855902
0.0572034
0.0287734
0.0160196
0.0805347
-0.0194064
0.0127656
0.0785668
0.00963519
0.0767588
0.00663829
0.0752141
0.00380021
0.0741217
0.00120201
0.0734854
-0.000912803
0.0726022
-0.00200603
0.068959
-0.00155173
0.0567491
0.0272217
0.00864933
0.0831245
-0.0112391
0.00615488
0.0810612
0.00377844
0.0791353
0.00151043
0.0774821
-0.000622484
0.0762547
-0.00248686
0.0753498
-0.00373973
0.0738551
-0.00380597
0.0690253
-0.00222828
0.0551714
0.0249934
0.000675957
0.0849192
-0.00247063
-0.000969823
0.082707
-0.00254114
0.0807066
-0.00404113
0.0789821
-0.0054045
0.077618
-0.00643724
0.0763825
-0.00671422
0.0741321
-0.00560322
0.0679143
-0.00282925
0.0523975
0.0221641
-0.00766468
0.00686765
-0.00845523
-0.00920183
-0.00988861
-0.0104224
-0.0105319
-0.00969352
-0.00727486
-0.00328739
0.03297
0.00312593
-0.0360959
0.0297209
0.00324909
0.0263292
0.00339174
0.0227742
0.00355502
0.0190278
0.00374642
0.0150559
0.00397181
0.0108385
0.0042174
0.00646087
0.00437768
0.00238473
0.00407614
0.00238473
0.0335396
0.00638174
-0.0367954
0.030176
0.0066127
0.0266848
0.00688289
0.0230452
0.00719462
0.0192285
0.00756313
0.0151995
0.00800082
0.0109348
0.00848213
0.00651629
0.00879616
0.00241205
0.00818038
0.00479678
0.034617
0.00988452
-0.0381198
0.0310354
0.0101943
0.0273548
0.0105635
0.0235535
0.0109959
0.019602
0.0115147
0.0154633
0.0121396
0.0111111
0.0128343
0.00662182
0.0132854
0.00245419
0.012348
0.00725097
0.0360833
0.0137243
-0.0399231
0.032203
0.0140745
0.0282617
0.0145048
0.0242378
0.0150198
0.0201007
0.0156518
0.0158115
0.0164288
0.0113399
0.0173059
0.00675507
0.0178702
0.00250754
0.0165955
0.0097585
0.0377755
0.0179568
-0.0420079
0.0335447
0.0183053
0.0292964
0.0187531
0.0250104
0.0193058
0.0206557
0.0200066
0.0161908
0.0208936
0.0115816
0.0219152
0.00689016
0.0225616
0.00255918
0.0209265
0.0123177
0.0395075
0.0225955
-0.0441462
0.0349072
0.0229056
0.0303319
0.0233283
0.0257672
0.0238705
0.0211827
0.024591
0.0165351
0.0255412
0.0117866
0.0266637
0.00699404
0.0273541
0.00259362
0.0253269
0.0149113
0.0410648
0.0276323
-0.0461015
0.0360998
0.0278707
0.031212
0.0282161
0.0263885
0.0286939
0.0215915
0.029388
0.0167753
0.0303575
0.0119031
0.0315359
0.00703166
0.0322256
0.00259445
0.0297642
0.0175057
0.0423307
0.0330436
-0.047742
0.037
0.0332014
0.0318179
0.0333981
0.0267641
0.0337478
0.0217861
0.034366
0.0168349
0.0353087
0.0118749
0.0364959
0.00696627
0.0371342
0.00254484
0.0341856
0.0200506
0.0429077
0.0389323
-0.0487964
0.0372915
0.0388176
0.0319513
0.0387383
0.0267601
0.038939
0.0216645
0.0394616
0.0166349
0.0403383
0.0116437
0.0414871
0.0067603
0.0420175
0.0024284
0.0385175
0.022479
0.0428778
-0.0497923
0.0370794
0.0316222
0.0263308
0.021177
0.0161321
0.0111723
0.00638665
0.00223496
0.0397083
-0.000107401
0.0398147
-0.00010646
0.0399183
-0.00010359
0.0400147
-9.63925e-05
0.0401002
-8.54632e-05
0.0401711
-7.09342e-05
0.0402235
-5.23784e-05
0.0402524
-2.89719e-05
0.040251
1.44399e-06
0.0402201
3.08836e-05
0.0401519
6.82491e-05
0.0400387
0.000113137
0.0398722
0.000166507
0.0396425
0.000229751
0.0393378
0.000304624
0.0389446
0.000393271
0.0384461
0.000498431
0.0378229
0.000623291
0.0370507
0.00077215
0.000954764
0.0405547
-0.000215764
0.0406606
-0.000212396
0.0407622
-0.000205103
0.0408559
-0.000190091
0.0409384
-0.000167996
0.0410061
-0.000138631
0.0410548
-0.000101072
0.0410795
-5.36726e-05
0.0410746
6.28804e-06
0.0410389
6.66116e-05
0.0409649
0.000142239
0.040845
0.000233012
0.0406707
0.000340882
0.0404318
0.000468627
0.0401166
0.000619776
0.0397113
0.000798599
0.0391991
0.00101062
0.0385603
0.00126208
0.0377709
0.00156155
0.0019303
0.0422192
-0.000315778
0.0423171
-0.000310329
0.042411
-0.000298971
0.0424969
-0.000275979
0.0425711
-0.00024224
0.0426299
-0.000197394
0.0426687
-0.000139932
0.0426821
-6.70227e-05
0.0426671
2.12507e-05
0.0426192
0.000114548
0.0425313
0.000230126
0.0423956
0.000368685
0.0422033
0.000533182
0.0419441
0.000727798
0.0416061
0.000957852
0.041175
0.00122971
0.0406338
0.00155175
0.0399628
0.00193312
0.0391383
0.00238607
0.00294879
0.0446416
-0.000396957
0.0447207
-0.000389414
0.0447958
-0.000374156
0.0448629
-0.000343068
0.0449177
-0.000297023
0.0449559
-0.000235632
0.044973
-0.000156974
0.0449634
-5.74234e-05
0.0449275
5.71168e-05
0.0448553
0.00018679
0.0447404
0.000344986
0.0445751
0.000534004
0.0443503
0.000758015
0.0440554
0.0010227
0.043678
0.00133518
0.0432038
0.00170399
0.0426152
0.00214031
0.0418918
0.00265653
0.0410117
0.00326617
0.00403738
0.0477405
-0.000442499
0.0477837
-0.000432601
0.0478226
-0.000413085
0.0478532
-0.000373627
0.047871
-0.000314819
0.0478714
-0.000236033
0.0478497
-0.000135262
0.0477933
-1.09074e-06
0.0477182
0.000132302
0.0476025
0.000302465
0.0474409
0.000506564
0.0472258
0.000749093
0.046948
0.00103587
0.0465963
0.00137437
0.0461582
0.00177327
0.0456184
0.00224373
0.0449598
0.00279898
0.0441594
0.00345694
0.0431998
0.00422569
0.00522929
0.0514222
-0.000428411
0.0514049
-0.000415376
0.0513818
-0.000389968
0.0513489
-0.000340688
0.0513015
-0.000267468
0.0512348
-0.000169322
0.0511401
-4.05619e-05
0.0510338
0.000105243
0.0508866
0.000279473
0.0506982
0.000490927
0.0504616
0.000743092
0.0501686
0.00104216
0.0498097
0.00139472
0.0493733
0.00181084
0.0488467
0.00229987
0.0482129
0.00287753
0.047456
0.00355585
0.046548
0.00436496
0.0454808
0.00529281
0.00656393
0.0555908
-0.000321944
0.0554795
-0.000304146
0.05536
-0.000270456
0.0552304
-0.000211095
0.0550848
-0.000121829
0.0549097
5.76218e-06
0.054727
0.000142127
0.0545133
0.000318978
0.0542608
0.000531948
0.053965
0.000786715
0.0536192
0.00108891
0.0532139
0.00144742
0.0527404
0.00186827
0.0521851
0.00236614
0.0515375
0.00294746
0.0507764
0.0036386
0.0498914
0.00444082
0.0488408
0.0054156
0.0476299
0.00650373
0.00809228
0.0601581
-7.90093e-05
0.0599102
-5.62161e-05
0.0596458
-6.09879e-06
0.0593711
6.36043e-05
0.059083
0.00016632
0.0587858
0.000302944
0.0584552
0.000472742
0.0580928
0.000681376
0.0576928
0.000931888
0.0572479
0.00123165
0.0567517
0.00158507
0.0561936
0.0020056
0.0555659
0.00249588
0.0548509
0.00308123
0.0540424
0.00375591
0.0531102
0.00457082
0.0520613
0.00548974
0.0508299
0.00664694
0.0494539
0.00787975
0.00980414
0.0650435
0.000345304
0.0646051
0.000382188
0.0641601
0.000438879
0.0637013
0.000522453
0.0632269
0.000640761
0.0627312
0.000798643
0.0622079
0.000996006
0.0616521
0.00123719
0.061059
0.00152494
0.0604203
0.00187038
0.0597307
0.00227462
0.0589777
0.00275864
0.0581583
0.0033153
0.0572477
0.00399183
0.0562481
0.00475553
0.0551048
0.00571407
0.0538582
0.00673635
0.052361
0.00814419
0.050803
0.00943771
0.0118108
0.0702517
0.00106904
0.069556
0.00107787
0.0688631
0.0011318
0.0681606
0.0012249
0.0674421
0.00135929
0.066702
0.00153879
0.0659361
0.00176191
0.0651391
0.00203418
0.0643074
0.00235662
0.0634317
0.00274605
0.0625085
0.00319787
0.0615225
0.00374464
0.0604767
0.00436109
0.0593415
0.00512701
0.0581488
0.00594822
0.0568195
0.00704337
0.0554726
0.00808329
0.0538319
0.00978483
0.0523109
0.0109587
0.0143294
0.0699707
0.00105972
0.0699779
0.00107071
0.0699797
0.00113
0.0699798
0.0012248
0.069977
0.00136214
0.0699698
0.00154589
0.0699614
0.00177032
0.0699537
0.00204188
0.0699516
0.00235874
0.0699554
0.00274225
0.0699748
0.0031785
0.0700077
0.00371174
0.0700773
0.00429148
0.0701733
0.00503106
0.0703529
0.00576855
0.0705743
0.00682196
0.0709864
0.00767124
0.0715093
0.00926193
0.0726125
0.00985552
0.0123538
0.0745881
0.0753915
0.000998649
0.0754039
0.00105833
0.0754143
0.00111965
0.0754294
0.00120966
0.0754408
0.00135072
0.0754468
0.00153996
0.075453
0.00176406
0.0754632
0.00203168
0.0754823
0.00233966
0.0755116
0.00271296
0.0755601
0.00312996