/*--------------------------------*- C++ -*----------------------------------*\
| =========                 |                                                 |
| \\      /  F ield         | OpenFOAM: The Open Source CFD Toolbox           |
|  \\    /   O peration     | Version:  4.1                                   |
|   \\  /    A nd           | Web:      www.OpenFOAM.org                      |
|    \\/     M anipulation  |                                                 |
\*---------------------------------------------------------------------------*/
FoamFile
{
    version     2.0;
    format      ascii;
    class       volVectorField;
    location    "12";
    object      U;
}
// * * * * * * * * * * * * * * * * * * * * * * * * * * * * * * * * * * * * * //

dimensions      [0 1 -1 0 0 0 0];

internalField   nonuniform List<vector> 
2000
(
(-0.0268398 0.0231118 -7.58617e-21)
(-0.00383356 0.0250864 0)
(0.0842843 0.0152508 -1.81388e-20)
(0.224525 0.00326458 -9.59668e-21)
(0.402912 -0.00476911 1.80049e-20)
(0.601137 -0.00674933 2.80748e-20)
(0.801881 -0.00226605 -8.88509e-21)
(0.986019 0.0044046 0)
(1.16639 0.0180775 8.77113e-21)
(1.27932 0.0283084 0)
(-0.0216111 0.0173349 3.91746e-21)
(0.034434 0.00835251 -4.67819e-21)
(0.174015 -0.0044464 1.4933e-20)
(0.372987 -0.0129704 2.47477e-20)
(0.602953 -0.0131134 -7.06018e-22)
(0.834179 -0.00567083 -9.61661e-21)
(1.04445 0.00654336 8.30121e-21)
(1.22175 0.0187721 8.79085e-21)
(1.36855 0.0331993 -8.77061e-21)
(1.45874 0.0350914 -1.73723e-20)
(-0.0100231 0.00977175 -2.6249e-21)
(0.0934576 -0.00968168 2.45867e-21)
(0.296899 -0.0207298 -7.38191e-21)
(0.555609 -0.0201337 -1.17499e-21)
(0.822014 -0.00901865 -8.30463e-21)
(1.05989 0.007592 -8.56922e-21)
(1.25217 0.0245806 -8.72951e-21)
(1.39719 0.0381499 -8.79057e-21)
(1.5025 0.0482742 -8.97975e-21)
(1.57711 0.0501248 9.07034e-21)
(0.0101143 0.000880442 -5.90354e-22)
(0.176634 -0.0261932 1.29001e-21)
(0.450477 -0.0287931 0)
(0.756372 -0.0145367 -8.11923e-21)
(1.03229 0.00754229 6.35118e-21)
(1.24876 0.0294071 0)
(1.40388 0.046401 0)
(1.50964 0.0566915 0)
(1.58447 0.0627017 8.98009e-21)
(1.63458 0.0613314 -1.86639e-20)
(0.0408167 -0.00816725 1.63079e-21)
(0.284617 -0.0368209 -6.18462e-23)
(0.624405 -0.0241991 -1.08745e-21)
(0.952588 0.00443927 -3.36191e-21)
(1.20987 0.0332761 -2.93562e-21)
(1.38749 0.055071 -3.67184e-21)
(1.50229 0.0681574 0)
(1.57747 0.0740297 -4.66375e-21)
(1.63156 0.0756132 2.4925e-20)
(1.67663 0.0716973 -3.37349e-20)
(0.0833772 -0.0155122 -5.55278e-21)
(0.41349 -0.0366961 1.47504e-21)
(0.801928 -0.00496 2.31272e-21)
(1.12414 0.0344117 -3.19028e-21)
(1.34439 0.0642931 9.59713e-21)
(1.47999 0.0819387 -2.58204e-21)
(1.56218 0.0896847 0)
(1.61731 0.0910483 4.66409e-21)
(1.66247 0.0889899 -4.96665e-21)
(1.70495 0.0841504 -2.29606e-20)
(0.137833 -0.0187623 0)
(0.554208 -0.022105 0)
(0.965882 0.0279328 5.65573e-22)
(1.26045 0.0720888 -5.26507e-22)
(1.43765 0.0982277 3.38944e-21)
(1.53684 0.109594 -3.18219e-21)
(1.59602 0.111675 -1.02326e-20)
(1.64005 0.108889 9.67214e-21)
(1.6811 0.103875 1.19806e-20)
(1.72367 0.0979379 -5.707e-21)
(0.202346 -0.0154265 2.86909e-21)
(0.694433 0.00809078 0)
(1.10442 0.0718171 6.65191e-22)
(1.35989 0.114845 -2.39515e-21)
(1.49628 0.134024 3.68102e-21)
(1.5673 0.138144 0)
(1.61182 0.134666 0)
(1.65021 0.128 0)
(1.6903 0.120348 1.35704e-20)
(1.73351 0.113368 -1.28995e-20)
(0.273072 -0.00358165 -1.62198e-21)
(0.822166 0.052381 -2.82537e-22)
(1.21211 0.123697 -4.34078e-22)
(1.42535 0.160805 -5.03898e-22)
(1.52701 0.171055 -4.22581e-22)
(1.57789 0.167619 -2.12091e-21)
(1.61378 0.158779 0)
(1.64988 0.148429 1.88607e-21)
(1.69001 0.13839 9.82115e-21)
(1.73373 0.129766 -7.42127e-21)
(0.344687 0.0176343 0)
(0.928647 0.107603 -8.85524e-22)
(1.28783 0.180682 0)
(1.46106 0.2085 3.77157e-23)
(1.5352 0.208764 4.97582e-23)
(1.57256 0.197786 1.33821e-21)
(1.60387 0.183756 0)
(1.63937 0.169805 -1.88625e-21)
(1.68001 0.157354 -2.01327e-21)
(1.72432 0.146546 -2.32772e-21)
(-0.00499978 0.00498146 0)
(-0.0210689 0.00978749 1.75225e-21)
(-0.0449071 0.0117979 0)
(-0.0687725 0.0124269 2.19281e-21)
(-0.0908583 0.0123789 6.6524e-22)
(-0.110867 0.0120733 -1.23074e-21)
(-0.128898 0.0117707 1.15905e-21)
(-0.145277 0.0116281 -1.05821e-21)
(-0.160497 0.0117609 -1.6129e-23)
(-0.175328 0.0122774 -9.14003e-22)
(-0.00599344 0.0143728 5.63365e-21)
(-0.0220417 0.0283508 -3.49496e-21)
(-0.0442925 0.0342532 3.13629e-21)
(-0.0658319 0.036065 -1.45605e-21)
(-0.0850947 0.0358291 -6.64564e-21)
(-0.101828 0.0347793 2.48644e-21)
(-0.116143 0.0336975 0)
(-0.128326 0.0330826 1.05466e-21)
(-0.138757 0.0333085 9.75244e-22)
(-0.148522 0.0347118 0)
(-0.00785433 0.0221765 -3.75921e-21)
(-0.0239753 0.044087 0)
(-0.0433736 0.0534415 -9.32604e-21)
(-0.0606558 0.0561902 1.14554e-20)
(-0.0746962 0.0555068 -2.66581e-21)
(-0.0853654 0.0533447 0)
(-0.0928169 0.0509801 0)
(-0.0973174 0.0493078 0)
(-0.0989928 0.0490601 -7.77545e-21)
(-0.0990481 0.0509133 7.38977e-21)
(-0.010349 0.0277803 0)
(-0.026799 0.0557271 6.61353e-21)
(-0.042577 0.0677081 -1.22075e-20)
(-0.0542103 0.0709409 5.66123e-21)
(-0.0612093 0.069427 -5.20514e-21)
(-0.0636784 0.0656583 1.45671e-20)
(-0.0618657 0.061291 -9.02523e-23)
(-0.0561175 0.0575867 -8.53556e-21)
(-0.0463443 0.0558315 -7.94854e-21)
(-0.0324719 0.0578748 1.13903e-20)
(-0.0132517 0.0311025 -7.06264e-21)
(-0.0303288 0.0627086 1.28341e-20)
(-0.0420569 0.0760767 -6.80122e-23)
(-0.0469713 0.0791074 4.57899e-23)
(-0.0453672 0.0763225 -5.18627e-21)
(-0.0376999 0.0705297 1.45715e-20)
(-0.0243757 0.0635544 0)
(-0.00586972 0.0568201 4.34999e-21)
(0.0181703 0.0522104 -4.15737e-21)
(0.0491977 0.0535666 1.52536e-20)
(-0.0164102 0.032486 -1.45456e-22)
(-0.0341636 0.0651218 -1.26003e-20)
(-0.041242 0.0782568 -5.89579e-21)
(-0.0380291 0.0801619 -5.33541e-21)
(-0.0256304 0.0756614 -5.16173e-21)
(-0.00489878 0.0677214 -4.85588e-21)
(0.0235475 0.0581478 0)
(0.0589014 0.0482106 -4.34975e-21)
(0.101249 0.0397741 -1.29528e-20)
(0.157247 0.0393496 3.76816e-21)
(-0.0197364 0.0324756 2.45734e-23)
(-0.0375022 0.0634595 -5.99383e-21)
(-0.0383772 0.0745273 0)
(-0.024267 0.0741825 1.10319e-20)
(0.00301865 0.0675276 -1.01428e-20)
(0.0422465 0.0576631 0)
(0.092486 0.0464389 0)
(0.152296 0.0348948 0)
(0.218648 0.0232227 8.75993e-21)
(0.312729 0.0217881 1.6084e-20)
(-0.0231058 0.0315413 6.07987e-21)
(-0.0389146 0.0583474 -5.69519e-21)
(-0.0300818 0.0654953 -1.07661e-20)
(0.000146287 0.0617852 2.38107e-22)
(0.0494429 0.0527013 -1.00843e-20)
(0.1159 0.0415328 -9.75593e-21)
(0.197555 0.0302976 -9.45048e-21)
(0.291714 0.0203916 -9.18226e-21)
(0.387943 0.0082359 -8.75897e-21)
(0.531955 0.0100605 8.93515e-21)
(-0.0260796 0.0298084 1.62593e-20)
(-0.0361493 0.0502135 5.79304e-21)
(-0.0112644 0.0519372 2.14966e-20)
(0.0436469 0.0442781 1.04487e-20)
(0.125324 0.0331684 2.01037e-22)
(0.22985 0.0220474 9.98766e-21)
(0.35236 0.0130099 -9.29419e-21)
(0.486599 0.0078762 9.18117e-21)
(0.61676 3.93517e-05 -8.93174e-21)
(0.80109 0.0102003 1.74562e-20)
(-0.0277489 0.0271342 -1.05755e-20)
(-0.0258385 0.0391581 0)
(0.0245372 0.0347695 -1.0241e-20)
(0.11577 0.0237513 7.11256e-23)
(0.241554 0.0124011 3.95041e-22)
(0.392919 0.00399995 -9.88012e-21)
(0.559621 0.000369981 2.78307e-20)
(0.727801 0.00117317 0)
(0.892403 0.00336633 8.93048e-21)
(1.07107 0.0209029 0)
(-0.190369 0.0130356 0)
(-0.206467 0.0129994 7.95961e-22)
(-0.222334 0.0126955 -1.56005e-21)
(-0.23786 0.0123075 6.70918e-22)
(-0.253003 0.0118481 0)
(-0.267664 0.0113111 -6.34469e-22)
(-0.281731 0.0106942 6.37613e-22)
(-0.295096 0.00999829 0)
(-0.307647 0.00922794 0)
(-0.319277 0.00839205 -5.79721e-23)
(-0.329891 0.00750405 0)
(-0.339411 0.00658226 0)
(-0.347781 0.00565015 0)
(-0.35498 0.0047363 0)
(-0.36102 0.00387357 4.84931e-23)
(-0.365954 0.003098 -4.87443e-23)
(-0.369937 0.00244783 0)
(-0.373266 0.00195522 8.38928e-24)
(-0.376135 0.00161783 -8.4334e-24)
(-0.377935 0.00139973 0)
(-0.159812 0.0369536 0)
(-0.173986 0.0370339 -2.0433e-22)
(-0.187952 0.0363771 0)
(-0.201746 0.0354816 -2.79159e-21)
(-0.215463 0.0343708 2.72112e-21)
(-0.229006 0.0330244 -1.65339e-22)
(-0.242262 0.0314323 1.172e-21)
(-0.25512 0.0295929 -2.39169e-21)
(-0.267465 0.0275146 1.92097e-21)
(-0.279177 0.025218 -1.03366e-21)
(-0.290141 0.0227368 -7.65386e-22)
(-0.300252 0.0201197 1.34338e-21)
(-0.309416 0.0174316 -6.66696e-22)
(-0.317565 0.0147548 -2.98069e-22)
(-0.324654 0.0121879 2.35287e-22)
(-0.330672 0.00984327 -4.07827e-23)
(-0.33571 0.00784402 -3.01885e-23)
(-0.340065 0.00630935 -3.1455e-23)
(-0.343969 0.00528168 3.16074e-23)
(-0.346558 0.00467495 -2.42681e-24)
(-0.103692 0.0547656 2.14088e-22)
(-0.114088 0.0552713 2.04689e-22)
(-0.124257 0.0548609 1.99156e-22)
(-0.134437 0.0541438 0)
(-0.145009 0.0530801 3.09559e-21)
(-0.155909 0.0516301 -2.41765e-21)
(-0.16703 0.0497697 0)
(-0.178276 0.0474844 2.83962e-22)
(-0.189542 0.0447736 1.281e-22)
(-0.200714 0.0416525 -1.5007e-21)
(-0.211669 0.0381563 2.20035e-22)
(-0.222275 0.0343429 1.70241e-21)
(-0.2324 0.030298 7.55016e-23)
(-0.241911 0.026139 6.34894e-23)
(-0.250678 0.0220188 5.03588e-23)
(-0.258574 0.0181243 -9.67431e-23)
(-0.26555 0.0146743 9.99193e-23)
(-0.271831 0.0119243 9.64874e-23)
(-0.277718 0.0101032 1.42228e-23)
(-0.281965 0.00919764 -2.03579e-24)
(-0.028745 0.0627949 6.58299e-21)
(-0.034464 0.0643551 -2.53946e-22)
(-0.0393915 0.0649032 -5.00961e-22)
(-0.0443762 0.0650699 -6.304e-21)
(-0.0501509 0.0648621 -5.48603e-22)
(-0.0567095 0.0641853 -1.67688e-22)
(-0.063974 0.062972 4.49362e-21)
(-0.0718886 0.0611888 -2.7768e-21)
(-0.0803983 0.0588175 -2.20089e-21)
(-0.0894362 0.055851 1.87414e-21)
(-0.0989175 0.0523011 -2.28961e-22)
(-0.108738 0.0482052 -1.80103e-21)
(-0.118773 0.0436326 -7.4874e-23)
(-0.128879 0.0386931 -5.69166e-22)
(-0.138882 0.0335486 3.95378e-22)
(-0.148568 0.0284203 2.59483e-22)
(-0.157712 0.0235873 -2.3433e-22)
(-0.166338 0.0194382 0)
(-0.174801 0.0165265 -2.37197e-23)
(-0.181706 0.015272 -1.32241e-24)
(0.0617293 0.0600442 -1.48931e-20)
(0.0617052 0.063367 6.35712e-21)
(0.0612901 0.0650585 -6.80804e-21)
(0.0615475 0.0663816 0)
(0.0611667 0.0674993 3.69402e-22)
(0.0597935 0.0681899 5.42752e-21)
(0.0574822 0.0682989 -1.12101e-22)
(0.0542676 0.0677759 -4.53339e-22)
(0.0501331 0.0665947 -4.56567e-21)
(0.0450584 0.0647245 -2.36679e-22)
(0.0390434 0.0621442 0)
(0.0321093 0.0588551 1.78976e-22)
(0.0242998 0.0548862 0)
(0.0156857 0.0502998 1.2374e-22)
(0.00637544 0.0452047 0)
(-0.00346865 0.0397706 0)
(-0.0135807 0.03424 -5.30056e-23)
(-0.02375 0.0289743 4.70954e-23)
(-0.0342817 0.0246658 -3.89952e-23)
(-0.0444935 0.0224351 6.87543e-24)
(0.176546 0.0489776 0)
(0.180183 0.0542321 4.42323e-22)
(0.181921 0.0568934 1.36729e-20)
(0.185386 0.0591641 -1.32435e-20)
(0.188992 0.0615276 4.06176e-22)
(0.19178 0.063604 0)
(0.193744 0.0651275 5.27852e-21)
(0.194966 0.0660517 -9.76713e-21)
(0.195379 0.0663642 5.11196e-21)
(0.194865 0.066019 2.65706e-22)
(0.193328 0.0649674 2.33991e-22)
(0.190695 0.063182 2.0209e-22)
(0.186905 0.0606594 0)
(0.181915 0.0574205 -8.08179e-22)
(0.175706 0.0535158 1.78908e-21)
(0.168297 0.0490386 -7.30468e-22)
(0.159798 0.044137 5.85979e-23)
(0.150382 0.038999 3.66372e-23)
(0.139807 0.0340052 -7.58596e-24)
(0.127674 0.0306075 7.66494e-24)
(0.334147 0.0347187 -1.65729e-20)
(0.337711 0.0417239 0)
(0.337618 0.0447253 4.63672e-22)
(0.340524 0.0474317 -8.79383e-22)
(0.344898 0.0506265 -8.33704e-22)
(0.349 0.0536212 -4.01898e-22)
(0.352693 0.056082 -3.75198e-22)
(0.356155 0.0580449 4.80386e-21)
(0.359298 0.0595344 -5.72862e-21)
(0.361917 0.0604923 -4.66416e-21)
(0.363841 0.0608516 3.87662e-21)
(0.364931 0.0605703 -4.17842e-22)
(0.365052 0.0596284 1.28328e-21)
(0.364071 0.0580239 -3.80346e-22)
(0.361869 0.0557782 -1.26646e-21)
(0.358338 0.052946 -9.35156e-23)
(0.353426 0.0496184 7.54633e-23)
(0.347064 0.0459293 -1.19426e-22)
(0.339431 0.0419226 -1.37635e-22)
(0.327971 0.0384657 -3.95581e-24)
(0.548441 0.0250204 0)
(0.54828 0.0321727 1.53041e-20)
(0.54345 0.0340552 -1.57023e-20)
(0.542694 0.0364764 4.51405e-22)
(0.544609 0.0398761 8.74916e-22)
(0.546899 0.0429909 4.01548e-22)
(0.549329 0.0455898 7.69226e-22)
(0.552131 0.0478923 0)
(0.555183 0.0499371 3.13608e-22)
(0.558231 0.0516271 2.8132e-22)
(0.561077 0.052878 2.69126e-22)
(0.563569 0.0536385 4.50375e-22)
(0.565548 0.0538791 0)
(0.566845 0.053583 0)
(0.567308 0.0527597 1.19898e-22)
(0.566749 0.0514467 8.7326e-22)
(0.565131 0.0497194 -6.08544e-22)
(0.561985 0.047701 5.10704e-23)
(0.558369 0.0455699 8.04378e-23)
(0.549971 0.0432569 -2.62171e-23)
(0.808743 0.0263411 -1.81831e-20)
(0.804676 0.0302468 0)
(0.797137 0.0293219 0)
(0.79389 0.0311294 1.50531e-20)
(0.79303 0.0340597 -1.12435e-21)
(0.792522 0.036387 -2.75873e-20)
(0.792358 0.0383105 1.29314e-20)
(0.792763 0.0401987 0)
(0.793587 0.0420412 0)
(0.794629 0.0437189 0)
(0.795771 0.045159 -1.22082e-22)
(0.796933 0.0463057 -3.57477e-22)
(0.79801 0.0471213 -3.04902e-21)
(0.798866 0.0475647 2.93669e-21)
(0.799405 0.0476446 -1.00383e-21)
(0.79938 0.047354 8.94441e-22)
(0.798948 0.0468086 0)
(0.797248 0.0459903 -1.97632e-23)
(0.795982 0.0453231 -2.74e-23)
(0.790744 0.0445105 0)
(1.08504 0.0298172 2.63921e-22)
(1.08588 0.0262822 1.63929e-20)
(1.08359 0.0250502 -1.62226e-20)
(1.08189 0.0277725 0)
(1.07915 0.0307835 -1.47734e-20)
(1.07551 0.0332843 2.86302e-20)
(1.07183 0.0356894 -1.38658e-20)
(1.0685 0.038069 0)
(1.06548 0.0402787 -5.54942e-21)
(1.06275 0.0422136 1.04951e-20)
(1.06033 0.0438491 -5.09277e-21)
(1.0582 0.0451461 1.23877e-22)
(1.05635 0.0461094 0)
(1.05469 0.046695 2.83989e-21)
(1.05323 0.0469736 -3.83322e-21)
(1.05166 0.0468906 1.09827e-21)
(1.05034 0.0466591 6.18172e-22)
(1.04827 0.0461531 -4.42215e-22)
(1.0472 0.0458371 -1.97192e-22)
(1.04373 0.0455305 0)
(1.39578 0.036707 0)
(1.37633 0.0337429 0)
(1.3626 0.0329353 0)
(1.35082 0.0334614 0)
(1.33995 0.0344557 0)
(1.33024 0.0357342 0)
(1.32187 0.0372119 0)
(1.31476 0.0387463 0)
(1.30866 0.0402541 0)
(1.3034 0.0416584 0)
(1.29884 0.0429388 0)
(1.29488 0.0440168 0)
(1.29145 0.044917 0)
(1.28841 0.0455498 0)
(1.2858 0.0460265 0)
(1.28327 0.046221 0)
(1.28127 0.0463743 0)
(1.27877 0.0463128 0)
(1.27743 0.0463659 0)
(1.27441 0.0465268 0)
(1.54138 0.0455032 0)
(1.53411 0.0461939 0)
(1.52891 0.046155 0)
(1.52392 0.0457556 0)
(1.51855 0.0455503 0)
(1.51318 0.0456937 0)
(1.50819 0.0461088 0)
(1.50372 0.0466497 0)
(1.49972 0.0472577 0)
(1.49616 0.0478433 0)
(1.49296 0.0484084 0)
(1.49012 0.0488436 0)
(1.48756 0.0492102 0)
(1.48524 0.0493648 0)
(1.48318 0.0494786 0)
(1.48114 0.0493421 0)
(1.47949 0.0492781 0)
(1.47742 0.0489801 0)
(1.47631 0.0489066 0)
(1.47376 0.0487105 0)
(1.64632 0.0490314 0)
(1.64357 0.0489102 0)
(1.64192 0.0488339 0)
(1.64089 0.0484644 0)
(1.63994 0.0482011 0)
(1.63901 0.0482358 0)
(1.63818 0.048538 0)
(1.63758 0.048953 0)
(1.63716 0.0494289 0)
(1.63694 0.0498573 0)
(1.63681 0.0502765 0)
(1.63683 0.0505555 0)
(1.63686 0.0508069 0)
(1.63703 0.0508387 0)
(1.63711 0.0508891 0)
(1.6373 0.0506666 0)
(1.63735 0.0505858 0)
(1.63748 0.0502046 0)
(1.63746 0.0501267 0)
(1.63747 0.0497605 0)
(1.72952 0.0507336 0)
(1.72956 0.0493554 0)
(1.72977 0.0486046 0)
(1.7306 0.0479722 0)
(1.73187 0.0475243 0)
(1.7334 0.0473517 0)
(1.73507 0.0474627 0)
(1.73698 0.0477192 0)
(1.739 0.04808 0)
(1.74127 0.0484144 0)
(1.74353 0.0487764 0)
(1.74602 0.0490168 0)
(1.74831 0.0492724 0)
(1.75093 0.049327 0)
(1.75307 0.0494379 0)
(1.75577 0.049291 0)
(1.75754 0.0492984 0)
(1.7604 0.0490214 0)
(1.7615 0.0490086 0)
(1.76488 0.0487534 0)
(1.80274 0.0505652 0)
(1.80458 0.0483501 0)
(1.80615 0.0469745 0)
(1.80812 0.0460304 0)
(1.81055 0.0453718 0)
(1.81334 0.0449646 0)
(1.81628 0.044828 0)
(1.8195 0.0448576 0)
(1.82278 0.0450338 0)
(1.8264 0.0452232 0)
(1.82993 0.0454786 0)
(1.83388 0.0456522 0)
(1.83746 0.0458733 0)
(1.84166 0.0459419 0)
(1.84504 0.0460796 0)
(1.84954 0.0460196 0)
(1.85237 0.0460839 0)
(1.85739 0.0459481 0)
(1.85916 0.0459799 0)
(1.86529 0.0458974 0)
(1.87488 0.0488 0)
(1.87773 0.0461946 0)
(1.8802 0.0444207 0)
(1.88284 0.0432056 0)
(1.8858 0.0423486 0)
(1.88915 0.0417383 0)
(1.89263 0.0413796 0)
(1.89641 0.0411932 0)
(1.9002 0.041176 0)
(1.90439 0.0412085 0)
(1.9084 0.041331 0)
(1.91299 0.0414144 0)
(1.91705 0.0415596 0)
(1.92202 0.0416083 0)
(1.92586 0.0417204 0)
(1.93132 0.0417081 0)
(1.93456 0.041777 0)
(1.94081 0.0417406 0)
(1.94284 0.0417809 0)
(1.95056 0.0418197 0)
(1.95021 0.0461295 0)
(1.95358 0.0434378 0)
(1.95655 0.0414541 0)
(1.95953 0.0400216 0)
(1.96268 0.0389777 0)
(1.96619 0.0381906 0)
(1.9698 0.0376436 0)
(1.97373 0.0372698 0)
(1.9776 0.0370719 0)
(1.98192 0.0369519 0)
(1.98598 0.0369349 0)
(1.99071 0.0369165 0)
(1.9948 0.0369644 0)
(1.99998 0.0369653 0)
(2.00384 0.0370199 0)
(2.00962 0.0370116 0)
(2.01287 0.037052 0)
(2.01958 0.0370572 0)
(2.0216 0.0370838 0)
(2.02995 0.0371727 0)
(2.02892 0.0430551 0)
(2.03258 0.0404092 0)
(2.03585 0.0383265 0)
(2.03905 0.0367369 0)
(2.04228 0.0355348 0)
(2.04583 0.0345996 0)
(2.04941 0.0338987 0)
(2.05333 0.0333698 0)
(2.05713 0.0330146 0)
(2.0614 0.0327558 0)
(2.06532 0.0326068 0)
(2.06999 0.0324859 0)
(2.07391 0.032434 0)
(2.07904 0.0323716 0)
(2.08273 0.0323581 0)
(2.08848 0.0323232 0)
(2.09157 0.0323224 0)
(2.0983 0.0323245 0)
(2.10021 0.0323298 0)
(2.10857 0.0324145 0)
(2.10901 0.0397043 0)
(2.11292 0.0371444 0)
(2.11647 0.0350344 0)
(2.11992 0.033355 0)
(2.12329 0.0320437 0)
(2.12691 0.0310002 0)
(2.13051 0.0301847 0)
(2.13444 0.0295381 0)
(2.13818 0.0290582 0)
(2.14239 0.0286849 0)
(2.14619 0.0284243 0)
(2.15076 0.0282121 0)
(2.15452 0.0280723 0)
(2.15952 0.027946 0)
(2.16302 0.0278694 0)
(2.16864 0.0277953 0)
(2.17155 0.0277544 0)
(2.17812 0.0277315 0)
(2.1799 0.0277162 0)
(2.18804 0.0277709 0)
(2.18803 0.0359895 0)
(2.19228 0.0335436 0)
(2.19619 0.0314663 0)
(2.19998 0.0297649 0)
(2.20362 0.0284028 0)
(2.20744 0.0272989 0)
(2.21116 0.0264124 0)
(2.21519 0.0256892 0)
(2.21897 0.0251237 0)
(2.22322 0.0246684 0)
(2.227 0.0243253 0)
(2.23153 0.0240438 0)
(2.23521 0.023837 0)
(2.24014 0.0236595 0)
(2.24352 0.023534 0)
(2.24903 0.0234252 0)
(2.25181 0.023353 0)
(2.25822 0.0233046 0)
(2.25991 0.0232733 0)
(2.2678 0.0232983 0)
(2.26432 0.0317773 0)
(2.26899 0.0294854 0)
(2.27337 0.027496 0)
(2.27761 0.0258347 0)
(2.28163 0.0244801 0)
(2.28576 0.0233669 0)
(2.28973 0.0224559 0)
(2.29396 0.0217003 0)
(2.29789 0.0210909 0)
(2.30227 0.0205919 0)
(2.30612 0.0202006 0)
(2.31071 0.0198797 0)
(2.31439 0.0196321 0)
(2.31933 0.0194263 0)
(2.32267 0.0192711 0)
(2.32812 0.0191453 0)
(2.33084 0.0190544 0)
(2.33714 0.018996 0)
(2.33877 0.0189553 0)
(2.34646 0.0189689 0)
(2.33787 0.0269733 0)
(2.343 0.0248827 0)
(2.34788 0.0230346 0)
(2.3526 0.0214713 0)
(2.35704 0.0201805 0)
(2.36152 0.0191108 0)
(2.36576 0.0182238 0)
(2.37023 0.0174828 0)
(2.37435 0.0168734 0)
(2.37888 0.0163729 0)
(2.38284 0.0159703 0)
(2.38751 0.0156454 0)
(2.39123 0.0153861 0)
(2.39618 0.0151819 0)
(2.3995 0.0150186 0)
(2.40491 0.0149018 0)
(2.40758 0.0148067 0)
(2.41377 0.0147633 0)
(2.41537 0.0147207 0)
(2.42285 0.014751 0)
(2.41078 0.0215975 0)
(2.41621 0.0197575 0)
(2.42143 0.0181067 0)
(2.4265 0.0166985 0)
(2.43123 0.0155259 0)
(2.43593 0.0145519 0)
(2.44034 0.0137376 0)
(2.44493 0.013059 0)
(2.44912 0.0124933 0)
(2.45369 0.0120344 0)
(2.45765 0.0116576 0)
(2.46229 0.0113658 0)
(2.46596 0.011124 0)
(2.4708 0.0109529 0)
(2.47404 0.0108033 0)
(2.47927 0.0107236 0)
(2.48185 0.0106387 0)
(2.48778 0.0106372 0)
(2.48931 0.0106002 0)
(2.49643 0.0106757 0)
(2.48631 0.0159124 0)
(2.49163 0.0143649 0)
(2.49681 0.0129617 0)
(2.50184 0.0117581 0)
(2.5065 0.0107492 0)
(2.51108 0.00991476 0)
(2.51533 0.00921394 0)
(2.51972 0.00863766 0)
(2.5237 0.00815236 0)
(2.528 0.00777099 0)
(2.53171 0.00745084 0)
(2.53603 0.00722236 0)
(2.53942 0.00702208 0)
(2.54388 0.00690932 0)
(2.54684 0.00679084 0)
(2.55162 0.00676945 0)
(2.55395 0.00670614 0)
(2.55933 0.00676541 0)
(2.56071 0.00673945 0)
(2.56713 0.00687924 0)
(2.5663 0.0104863 0)
(2.57094 0.00924741 0)
(2.57549 0.00811655 0)
(2.57993 0.00714226 0)
(2.584 0.00631967 0)
(2.58797 0.00564572 0)
(2.59161 0.00507868 0)
(2.59533 0.00462451 0)
(2.59869 0.00423822 0)
(2.60231 0.00395137 0)
(2.60541 0.00370351 0)
(2.60901 0.00355157 0)
(2.6118 0.00340424 0)
(2.6155 0.00335848 0)
(2.61792 0.00327874 0)
(2.62188 0.0033202 0)
(2.62377 0.00328282 0)
(2.6282 0.00340399 0)
(2.62931 0.00339104 0)
(2.63458 0.00359388 0)
(2.64832 0.00600413 0)
(2.65179 0.0050535 0)
(2.65522 0.0041819 0)
(2.65857 0.00342732 0)
(2.66161 0.00278447 0)
(2.66453 0.00226371 0)
(2.66715 0.00182473 0)
(2.66982 0.00148616 0)
(2.6722 0.00119462 0)
(2.67477 0.000995338 0)
(2.67693 0.000814651 0)
(2.67948 0.000730512 0)
(2.68141 0.000632405 0)
(2.68402 0.000642279 0)
(2.68568 0.000596972 0)
(2.68847 0.000685999 0)
(2.68976 0.000670748 0)
(2.6929 0.000834218 0)
(2.69365 0.000831942 0)
(2.69738 0.00107349 0)
(2.72556 0.00286563 0)
(2.7277 0.00216383 0)
(2.72987 0.00151924 0)
(2.73196 0.000957747 0)
(2.7338 0.000471352 0)
(2.7355 8.39117e-05 0)
(2.73696 -0.000243697 0)
(2.73844 -0.000486618 0)
(2.7397 -0.000698974 0)
(2.74109 -0.000830509 0)
(2.7422 -0.000957166 0)
(2.74356 -0.000995259 0)
(2.74452 -0.00105783 0)
(2.74591 -0.00101745 0)
(2.74672 -0.00104018 0)
(2.74822 -0.000932263 0)
(2.74884 -0.000934422 0)
(2.75054 -0.0007618 0)
(2.75089 -0.000758274 0)
(2.75293 -0.000516844 0)
(2.79024 0.00100354 0)
(2.79125 0.000515174 0)
(2.7923 7.22072e-05 0)
(2.79329 -0.000313027 0)
(2.79406 -0.000651816 0)
(2.79468 -0.000918799 0)
(2.79511 -0.00114572 0)
(2.7955 -0.00130825 0)
(2.79577 -0.00145282 0)
(2.79607 -0.00153405 0)
(2.79625 -0.00161699 0)
(2.79651 -0.0016294 0)
(2.79661 -0.00166795 0)
(2.79686 -0.00162153 0)
(2.79692 -0.00163191 0)
(2.79721 -0.00153353 0)
(2.79724 -0.00153043 0)
(2.79761 -0.00138172 0)
(2.79761 -0.00137658 0)
(2.79809 -0.00117388 0)
(2.83662 0.00021204 0)
(2.83683 -0.000124945 0)
(2.83708 -0.000409752 0)
(2.83725 -0.000638922 0)
(2.83724 -0.000833615 0)
(2.83705 -0.000986176 0)
(2.83672 -0.0011168 0)
(2.83631 -0.00120733 0)
(2.83584 -0.00128928 0)
(2.83534 -0.00133115 0)
(2.83481 -0.0013769 0)
(2.83425 -0.00137711 0)
(2.83371 -0.00139654 0)
(2.83311 -0.0013605 0)
(2.8326 -0.00136342 0)
(2.83199 -0.00129503 0)
(2.83158 -0.00129053 0)
(2.83093 -0.00119047 0)
(2.83068 -0.00118583 0)
(2.82997 -0.00105138 0)
(2.86088 0.000171565 0)
(2.86066 3.29671e-06 0)
(2.86051 -0.000129277 0)
(2.86026 -0.000226241 0)
(2.85983 -0.000303596 0)
(2.85921 -0.000363409 0)
(2.85847 -0.000414152 0)
(2.85763 -0.000449717 0)
(2.85676 -0.00048149 0)
(2.85581 -0.000498509 0)
(2.85491 -0.000516412 0)
(2.85391 -0.000517935 0)
(2.85302 -0.000525828 0)
(2.85196 -0.000514157 0)
(2.85116 -0.000515803 0)
(2.85005 -0.000492594 0)
(2.8494 -0.000491325 0)
(2.84821 -0.000457024 0)
(2.84782 -0.000455509 0)
(2.84647 -0.000409264 0)
(1.77163 0.133572 2.27437e-21)
(1.78037 0.122137 0)
(1.77954 0.110358 -4.24422e-22)
(1.77067 0.098621 -1.28836e-20)
(1.75225 0.0871195 2.22042e-20)
(1.7285 0.0768888 0)
(1.69366 0.0663278 1.9277e-20)
(1.6472 0.0600981 0)
(1.60126 0.0469454 1.81612e-20)
(1.42419 0.0372196 -2.75164e-22)
(1.82576 0.123258 -2.53798e-21)
(1.83295 0.113792 5.15854e-22)
(1.83127 0.103791 -5.1689e-22)
(1.82142 0.0949488 -1.00383e-21)
(1.80475 0.0850638 -1.22475e-20)
(1.7779 0.0783291 -7.49426e-22)
(1.75689 0.0688775 0)
(1.69739 0.0647885 -2.00053e-20)
(1.70087 0.0584676 0)
(1.55025 0.0455214 -1.73557e-20)
(1.88536 0.112898 5.20588e-21)
(1.88992 0.105081 0)
(1.8892 0.0960768 -4.91579e-22)
(1.87536 0.089228 -4.51278e-22)
(1.86422 0.080656 1.30129e-20)
(1.82818 0.07566 0)
(1.82186 0.0690257 2.25866e-20)
(1.74958 0.063631 2.05861e-20)
(1.76633 0.0624157 0)
(1.64943 0.0512569 1.71772e-20)
(1.94788 0.103535 -2.34625e-21)
(1.94926 0.0968981 9.62824e-21)
(1.95176 0.0890992 0)
(1.93291 0.083212 1.539e-20)
(1.92856 0.0764416 8.54312e-22)
(1.88472 0.0711041 -1.63526e-21)
(1.88522 0.0672599 -2.17103e-20)
(1.81161 0.0603417 -7.15376e-22)
(1.82092 0.0604809 -2.128e-20)
(1.72884 0.0537478 0)
(2.01103 0.0950483 0)
(2.00972 0.0891177 -9.38913e-21)
(2.01577 0.0828546 -1.0565e-20)
(1.99395 0.077189 1.54497e-21)
(1.99401 0.0723595 -9.96184e-22)
(1.94866 0.066387 -8.2657e-22)
(1.94819 0.0640846 -2.45156e-20)
(1.88127 0.0576783 -1.45791e-21)
(1.88043 0.0569771 -4.42389e-22)
(1.80018 0.0537852 2.02055e-20)
(2.07286 0.0870706 2.9506e-21)
(2.07036 0.0815923 6.31604e-22)
(2.07863 0.0767643 -1.54972e-21)
(2.05717 0.0712728 5.73319e-22)
(2.0586 0.067797 -1.62938e-20)
(2.01701 0.0621597 0)
(2.01347 0.0601527 2.684e-20)
(1.95422 0.0555651 -7.96591e-22)
(1.94827 0.0535937 4.52923e-20)
(1.87163 0.0521261 -4.10776e-20)
(2.13203 0.0792897 -2.96512e-21)
(2.12992 0.0743089 -5.53943e-21)
(2.13905 0.0704694 9.82851e-21)
(2.12026 0.0655485 -1.73994e-20)
(2.12196 0.0626714 -1.72497e-21)
(2.08579 0.0581821 -1.54515e-20)
(2.08131 0.0558787 8.33109e-22)
(2.02758 0.0529475 -1.59593e-21)
(2.02156 0.050197 -2.22561e-20)
(1.94667 0.0493982 2.08654e-20)
(2.18805 0.0714726 0)
(2.18714 0.067156 1.19369e-20)
(2.19677 0.0638834 -1.29202e-21)
(2.18118 0.0598572 9.59831e-21)
(2.18378 0.0571654 -5.7748e-22)
(2.15233 0.0539244 3.05299e-20)
(2.14961 0.0513686 -1.38225e-20)
(2.10006 0.0494557 0)
(2.09661 0.0465928 0)
(2.02518 0.0461429 0)
(2.24131 0.0635098 0)
(2.24166 0.0599342 -1.08686e-20)
(2.252 0.057028 -6.92739e-22)
(2.23911 0.0539224 9.58729e-21)
(2.24347 0.05138 1.75854e-20)
(2.21573 0.0490923 -1.70065e-20)
(2.21604 0.046605 1.66059e-20)
(2.17085 0.0453138 -8.92817e-22)
(2.17056 0.0427405 0)
(2.10507 0.0425984 1.17505e-20)
(2.29318 0.0553661 3.86455e-22)
(2.29452 0.0524741 6.19366e-21)
(2.30567 0.0499099 9.64672e-21)
(2.29478 0.0475621 -5.51573e-22)
(2.30097 0.0452889 1.19513e-21)
(2.27643 0.0436672 -1.80506e-20)
(2.27948 0.0415004 1.76269e-20)
(2.23933 0.0406956 -9.19772e-22)
(2.24155 0.0384965 0)
(2.1838 0.0386971 -2.37236e-20)
(2.34616 0.0470984 0)
(2.34817 0.0447656 6.09122e-21)
(2.35974 0.0425604 1.95852e-22)
(2.35037 0.0407849 0)
(2.35757 0.0388562 0)
(2.33597 0.037734 1.59922e-20)
(2.3405 0.0359382 -1.46289e-20)
(2.30563 0.035575 -8.76808e-22)
(2.30919 0.0336803 4.62991e-22)
(2.25967 0.0342706 1.2367e-20)
(2.40358 0.0387436 0)
(2.40592 0.036905 -1.15768e-20)
(2.41714 0.0350651 -1.27189e-20)
(2.40889 0.0337392 1.94311e-21)
(2.41594 0.0321293 -1.25083e-21)
(2.39689 0.0314116 -1.06636e-21)
(2.40146 0.0298957 2.03074e-21)
(2.37128 0.029922 1.31656e-20)
(2.37504 0.0282434 1.29511e-21)
(2.33279 0.0292077 -4.04329e-22)
(2.46843 0.0305875 0)
(2.47066 0.0292019 6.22894e-21)
(2.48074 0.0276894 -6.98495e-22)
(2.4732 0.0267238 6.92727e-22)
(2.47919 0.0253421 0)
(2.46208 0.0249306 0)
(2.46572 0.0235731 0)
(2.43907 0.0238736 -1.49584e-20)
(2.44231 0.0223488 1.40637e-20)
(2.4054 0.0235375 0)
(2.54119 0.023217 0)
(2.54283 0.0221839 3.96097e-21)
(2.5513 0.02092 5.15418e-21)
(2.54417 0.0202024 6.76899e-21)
(2.54884 0.0189626 -1.29482e-21)
(2.5332 0.0187104 8.12831e-21)
(2.53578 0.0174395 -7.39878e-21)
(2.51165 0.017807 0)
(2.51423 0.0164134 7.09143e-22)
(2.48103 0.0175398 -1.34131e-20)
(2.61802 0.0171014 -8.69383e-22)
(2.61887 0.0162988 -3.20824e-21)
(2.62574 0.0152348 -6.66138e-21)
(2.61909 0.0146369 -4.76044e-21)
(2.62279 0.0135228 0)
(2.60873 0.0132591 -1.03591e-20)
(2.61072 0.0120893 1.06037e-20)
(2.58915 0.0122844 -1.00938e-21)
(2.59127 0.011047 -6.95155e-21)
(2.56173 0.0118049 1.94375e-20)
(2.69146 0.0123958 8.73845e-22)
(2.69186 0.0117178 -2.48063e-21)
(2.69747 0.0108522 2.24991e-21)
(2.69187 0.0102748 -5.59894e-21)
(2.69509 0.00933482 0)
(2.68344 0.00894485 0)
(2.68532 0.0079467 1.04379e-21)
(2.66745 0.00783078 -9.90071e-21)
(2.66929 0.00679666 -6.21433e-21)
(2.64496 0.00704131 -6.5003e-21)
(2.75419 0.00880693 0)
(2.75483 0.00821845 4.08109e-21)
(2.75954 0.00757711 -1.51054e-21)
(2.75576 0.0070073 4.97994e-21)
(2.75872 0.00629774 1.34187e-21)
(2.75044 0.00579173 -1.15176e-21)
(2.7523 0.00502399 2.17903e-21)
(2.73946 0.00464016 6.86431e-21)
(2.74096 0.00383521 0)
(2.72355 0.00365741 0)
(2.80283 0.00581907 0)
(2.80418 0.00538133 1.6639e-21)
(2.80813 0.00499514 -3.07416e-21)
(2.80648 0.00451622 0)
(2.80908 0.00406273 -2.6235e-21)
(2.80447 0.0035595 -1.16125e-21)
(2.80608 0.00303549 -3.26476e-21)
(2.79858 0.00255005 -9.67157e-22)
(2.79958 0.00196779 4.98244e-22)
(2.78935 0.00157831 4.26605e-22)
(2.8373 0.00314919 0)
(2.83918 0.00295751 -1.67186e-21)
(2.84229 0.00284148 -1.52859e-21)
(2.84234 0.0025807 2.12845e-21)
(2.84437 0.00238657 1.26602e-21)
(2.8427 0.00204846 1.20747e-21)
(2.84383 0.00176258 5.45283e-21)
(2.84062 0.00137302 -4.01011e-21)
(2.84105 0.00100042 9.38365e-22)
(2.83654 0.000615099 0)
(2.85612 0.000799396 0)
(2.85811 0.000851628 8.20643e-22)
(2.86056 0.000934054 -7.87571e-22)
(2.86145 0.000939225 7.48381e-22)
(2.86299 0.000960458 0)
(2.86288 0.000893712 -1.21345e-21)
(2.8636 0.000835811 1.07325e-21)
(2.86269 0.000699563 9.67697e-22)
(2.8627 0.000560323 0)
(2.86127 0.000372365 0)
(1.12566 0.233426 0)
(1.06627 0.254364 -5.76585e-20)
(1.01899 0.282887 0)
(0.980565 0.31988 -1.9131e-19)
(0.946933 0.364918 7.20581e-20)
(0.915736 0.419646 2.12456e-21)
(0.88366 0.484226 6.48669e-20)
(0.832678 0.546767 -6.79398e-21)
(0.705092 0.552857 0)
(0.389744 0.336857 6.9005e-20)
(1.21453 0.236552 1.0572e-19)
(1.15666 0.263414 5.76573e-20)
(1.10939 0.290639 -5.54423e-20)
(1.06984 0.326425 6.43701e-20)
(1.03625 0.371363 -5.64311e-20)
(1.00742 0.426043 7.05633e-21)
(0.97933 0.490038 -6.63916e-20)
(0.930907 0.550595 -1.33292e-19)
(0.795285 0.552706 -3.54285e-20)
(0.439821 0.331181 -1.01286e-19)
(1.29809 0.235827 -4.7443e-20)
(1.24463 0.264819 4.92421e-20)
(1.19863 0.291387 5.54406e-20)
(1.15814 0.326277 5.70483e-20)
(1.12433 0.37063 5.85421e-20)
(1.09753 0.424371 5.96658e-20)
(1.07284 0.48641 8.40109e-21)
(1.0257 0.542863 5.90476e-20)
(0.880045 0.539071 2.42917e-20)
(0.483624 0.315418 -2.59309e-20)
(1.37887 0.232541 9.47488e-20)
(1.32851 0.261917 -4.92399e-20)
(1.28366 0.287596 0)
(1.2429 0.321052 0)
(1.20927 0.363744 0)
(1.18424 0.415268 4.64772e-20)
(1.16199 0.473778 -4.13062e-20)
(1.1141 0.52383 0)
(0.955611 0.512208 1.8442e-20)
(0.517884 0.290032 -3.80314e-20)
(1.45468 0.226423 -1.8318e-20)
(1.40608 0.254913 6.52268e-20)
(1.36218 0.279504 0)
(1.32184 0.311159 0)
(1.28896 0.351304 1.95986e-20)
(1.26553 0.399418 1.89095e-20)
(1.24448 0.452874 2.56792e-20)
(1.19311 0.494284 1.52181e-20)