/*--------------------------------*- C++ -*----------------------------------*\
| =========                 |                                                 |
| \\      /  F ield         | OpenFOAM: The Open Source CFD Toolbox           |
|  \\    /   O peration     | Version:  4.1                                   |
|   \\  /    A nd           | Web:      www.OpenFOAM.org                      |
|    \\/     M anipulation  |                                                 |
\*---------------------------------------------------------------------------*/
FoamFile
{
    version     2.0;
    format      ascii;
    class       volVectorField;
    location    "10.7";
    object      U;
}
// * * * * * * * * * * * * * * * * * * * * * * * * * * * * * * * * * * * * * //

dimensions      [0 1 -1 0 0 0 0];

internalField   nonuniform List<vector> 
2000
(
(-0.0353491 0.0295679 -7.3693e-21)
(-0.0230841 0.0394199 0)
(0.0603997 0.0335638 -1.80437e-20)
(0.203409 0.0234342 -9.55764e-21)
(0.392628 0.0163857 1.79247e-20)
(0.608355 0.0151051 2.75409e-20)
(0.830795 0.0204976 -8.80556e-21)
(1.03587 0.0276435 0)
(1.23945 0.0420013 8.21525e-21)
(1.36606 0.0523 0)
(-0.0319837 0.0239567 3.83071e-21)
(0.0132038 0.0216813 -4.61839e-21)
(0.151681 0.0116718 1.45821e-20)
(0.360706 0.00458886 2.44343e-20)
(0.610248 0.00587192 -8.24207e-22)
(0.865903 0.0149566 -9.45517e-21)
(1.10035 0.0288382 7.98896e-21)
(1.29852 0.0421143 8.35541e-21)
(1.46076 0.0572398 -8.21469e-21)
(1.55939 0.0583666 -1.59205e-20)
(-0.0221802 0.0163983 -2.38687e-21)
(0.0719511 0.00236045 2.23572e-21)
(0.280999 -0.00657989 -7.16824e-21)
(0.559398 -0.00400886 -1.36965e-21)
(0.852852 0.0096764 -8.11604e-21)
(1.1173 0.028874 -8.3138e-21)
(1.33077 0.0477942 -8.38607e-21)
(1.48991 0.0622308 -8.35511e-21)
(1.60171 0.0720532 -8.48807e-21)
(1.68024 0.0729272 8.55488e-21)
(-0.00346196 0.00718422 -6.19369e-22)
(0.15764 -0.0158938 9.18824e-22)
(0.446841 -0.0160661 0)
(0.781412 0.00166025 -7.90134e-21)
(1.08695 0.0274649 5.89961e-21)
(1.32622 0.0521247 0)
(1.49523 0.0704968 0)
(1.6069 0.0806644 0)
(1.68264 0.0857035 8.48844e-21)
(1.73026 0.0828148 -1.75651e-20)
(0.0266336 -0.00267219 3.0708e-21)
(0.272026 -0.0284846 1.59238e-23)
(0.638117 -0.0117499 -5.33975e-22)
(0.999621 0.0220674 -3.21083e-21)
(1.28326 0.0549842 -2.52987e-21)
(1.47642 0.0789079 -3.32677e-21)
(1.59757 0.0923297 0)
(1.67326 0.0973303 -4.40637e-21)
(1.72432 0.0974579 2.37746e-20)
(1.76543 0.0916913 -3.21891e-20)
(0.0699997 -0.0112198 -8.25589e-21)
(0.411738 -0.0296854 1.66625e-21)
(0.83517 0.00865739 1.12476e-21)
(1.18962 0.0541593 -2.12365e-21)
(1.42958 0.0875566 8.31503e-21)
(1.57353 0.106292 -2.10435e-21)
(1.65679 0.113549 0)
(1.70906 0.113573 4.40672e-21)
(1.74969 0.109803 -4.73889e-21)
(1.787 0.103162 -2.21971e-20)
(0.127131 -0.015774 0)
(0.566869 -0.0149819 0)
(1.01737 0.0438285 -2.92968e-22)
(1.33916 0.0940416 2.72728e-22)
(1.52904 0.122685 2.85536e-21)
(1.63106 0.13421 -2.68077e-21)
(1.68788 0.135221 -9.59594e-21)
(1.72729 0.130814 9.0704e-21)
(1.76277 0.123969 1.1582e-20)
(1.79946 0.11617 -5.51407e-21)
(0.19648 -0.0134251 3.84845e-21)
(0.722996 0.0170304 0)
(1.17087 0.0906216 2.32357e-22)
(1.44712 0.138923 -5.61722e-22)
(1.5902 0.159524 2.54363e-21)
(1.66018 0.163043 0)
(1.70028 0.158096 0)
(1.73301 0.149621 0)
(1.76702 0.140031 1.32148e-20)
(1.80402 0.131214 -1.25616e-20)
(0.274058 -0.0018317 -2.09114e-21)
(0.865904 0.0645519 -2.71213e-22)
(1.28987 0.145777 -1.08192e-21)
(1.51755 0.18699 -2.25312e-22)
(1.62125 0.197632 -1.98168e-22)
(1.66856 0.192997 -1.80459e-21)
(1.69883 0.182393 0)
(1.7287 0.170077 1.82357e-21)
(1.76238 0.15802 9.63109e-21)
(1.79956 0.147502 -7.27891e-21)
(0.353956 0.0201494 0)
(0.985466 0.123959 -1.37467e-21)
(1.3736 0.206286 0)
(1.55575 0.236883 -1.13256e-22)
(1.62855 0.236595 -9.10718e-23)
(1.66075 0.223933 1.17279e-21)
(1.68575 0.207888 0)
(1.71466 0.191806 -1.82375e-21)
(1.74863 0.177212 -1.97306e-21)
(1.78627 0.164447 -2.31383e-21)
(-0.00721342 0.00710368 0)
(-0.029815 0.0136583 1.83208e-21)
(-0.0628982 0.0163137 0)
(-0.0958889 0.0171991 2.25187e-21)
(-0.126629 0.0173256 6.69181e-22)
(-0.154978 0.0172396 -1.22414e-21)
(-0.181183 0.0172356 1.15284e-21)
(-0.205688 0.0174606 -1.01924e-21)
(-0.229095 0.0180128 -2.34458e-23)
(-0.252241 0.0189768 -8.52615e-22)
(-0.00847857 0.0204127 5.90205e-21)
(-0.0307523 0.0395044 -3.65842e-21)
(-0.0614444 0.0473817 3.23419e-21)
(-0.0912288 0.0499971 -1.497e-21)
(-0.118231 0.0502745 -6.70038e-21)
(-0.142308 0.0498301 2.49876e-21)
(-0.163676 0.0495604 0)
(-0.182691 0.04995 1.01581e-21)
(-0.199805 0.0513293 9.1812e-22)
(-0.216249 0.0539668 0)
(-0.0108023 0.0312223 -3.9377e-21)
(-0.0326405 0.0612292 0)
(-0.0590751 0.0739681 -9.55915e-21)
(-0.0830579 0.0781622 1.16387e-20)
(-0.103239 0.0783225 -2.69844e-21)
(-0.119545 0.0770266 0)
(-0.132178 0.0757722 0)
(-0.141391 0.0754758 0)
(-0.147284 0.0768187 -7.11052e-21)
(-0.151419 0.0803653 6.75773e-21)
(-0.0138088 0.0385593 0)
(-0.0354505 0.0769662 6.74643e-21)
(-0.0566202 0.0937743 -1.24023e-20)
(-0.0731051 0.0992175 5.72795e-21)
(-0.0843447 0.0989062 -5.12925e-21)
(-0.0904793 0.0961486 1.41883e-20)
(-0.0917662 0.0929406 -2.59767e-22)
(-0.0884807 0.0906456 -8.10145e-21)
(-0.0802999 0.0904854 -7.19539e-21)
(-0.0677584 0.0939725 1.0264e-20)
(-0.0171409 0.0422949 -7.20191e-21)
(-0.0390688 0.0859036 1.29832e-20)
(-0.054736 0.105433 -6.09648e-23)
(-0.0627863 0.111513 8.34373e-23)
(-0.063661 0.110346 -5.04229e-21)
(-0.0578845 0.105669 1.42171e-20)
(-0.0458389 0.0997354 0)
(-0.0279801 0.0940878 4.06568e-21)
(-0.0038018 0.090544 -3.80407e-21)
(0.0288206 0.0928321 1.33431e-20)
(-0.0206031 0.0430223 -1.8677e-22)
(-0.0432281 0.0882741 -1.26852e-20)
(-0.053394 0.108582 -5.92062e-21)
(-0.0521736 0.114292 -5.28952e-21)
(-0.0410346 0.111828 -5.08238e-21)
(-0.0209652 0.105104 -4.71105e-21)
(0.00745841 0.0963841 0)
(0.0435425 0.0870497 -4.06543e-21)
(0.0873512 0.0789044 -1.17357e-20)
(0.147478 0.0783439 3.48192e-21)
(-0.0242044 0.0417476 2.95408e-23)
(-0.0473642 0.0851083 -5.98503e-21)
(-0.0513091 0.103784 0)
(-0.0389198 0.107688 1.09025e-20)
(-0.012413 0.103335 -1.00389e-20)
(0.0268641 0.0947041 0)
(0.078163 0.0840801 0)
(0.140408 0.0727752 0)
(0.209488 0.060638 8.10578e-21)
(0.312561 0.0575374 1.42489e-20)
(-0.0279869 0.0394434 6.05283e-21)
(-0.0503178 0.0777784 -5.66987e-21)
(-0.0453366 0.0922884 -1.0759e-20)
(-0.0172301 0.0927864 1.96812e-22)
(0.0314536 0.085935 -1.00302e-20)
(0.0989324 0.075784 -9.60856e-21)
(0.183726 0.0647981 -9.17735e-21)
(0.284019 0.0550207 -8.76582e-21)
(0.385235 0.0418754 -8.10484e-21)
(0.547076 0.0411031 8.19907e-21)
(-0.0317014 0.0367108 1.6143e-20)
(-0.0498356 0.067452 5.80312e-21)
(-0.0299746 0.0756919 2.15209e-20)
(0.0225477 0.0716746 1.04585e-20)
(0.104714 0.0623795 1.5595e-22)
(0.213116 0.0519145 9.75602e-21)
(0.343295 0.0427845 -9.15983e-21)
(0.489619 0.0377857 8.76472e-21)
(0.629463 0.0288748 -8.3376e-21)
(0.841016 0.0369025 1.58197e-20)
(-0.0346055 0.0335909 -1.04896e-20)
(-0.0423198 0.0546745 0)
(0.00241772 0.0555919 -1.02457e-20)
(0.0924597 0.0473235 6.60705e-23)
(0.222318 0.0372371 3.6643e-22)
(0.38332 0.0292483 -9.65811e-21)
(0.564822 0.0256983 2.72932e-20)
(0.75082 0.0267035 0)
(0.933092 0.0284956 8.3363e-21)
(1.13915 0.0452264 0)
(-0.275576 0.0201491 0)
(-0.300527 0.0200932 6.69777e-22)
(-0.325138 0.0197435 -1.28241e-21)
(-0.349408 0.0192574 5.40479e-22)
(-0.373202 0.0186124 0)
(-0.396298 0.0177856 -4.06926e-22)
(-0.418454 0.0167628 4.08942e-22)
(-0.439407 0.0155364 0)
(-0.458883 0.0141068 0)
(-0.476602 0.0124822 -1.92273e-23)
(-0.492294 0.0106802 0)
(-0.505704 0.00872951 0)
(-0.516609 0.00667072 0)
(-0.524841 0.00455478 0)
(-0.530322 0.00244096 -1.60779e-23)
(-0.533028 0.000416393 1.61612e-23)
(-0.532844 -0.00140193 0)
(-0.529693 -0.00298916 -3.83695e-24)
(-0.52466 -0.00435962 3.85713e-24)
(-0.521241 -0.00535722 0)
(-0.234119 0.0572937 0)
(-0.256237 0.0574015 -1.71685e-22)
(-0.277955 0.0566573 0)
(-0.299538 0.0555324 -2.0655e-21)
(-0.321014 0.0539647 2.02289e-21)
(-0.342194 0.0518797 -1.06118e-22)
(-0.362871 0.049226 6.42425e-22)
(-0.382814 0.0459717 -1.21164e-21)
(-0.401773 0.042106 8.05611e-22)
(-0.419484 0.0376405 -3.7144e-22)
(-0.435673 0.0326124 -1.0252e-22)
(-0.450066 0.02709 9.98866e-23)
(-0.462402 0.0211797 1.8732e-24)
(-0.472462 0.0150295 9.37844e-23)
(-0.480068 0.00882698 -7.34564e-23)
(-0.48504 0.0028118 2.9373e-23)
(-0.487247 -0.00273348 2.77499e-23)
(-0.486619 -0.0075375 2.61539e-23)
(-0.483926 -0.0115604 -2.62806e-23)
(-0.481793 -0.0144005 4.54859e-24)
(-0.159997 0.0855017 1.8433e-22)
(-0.176463 0.0862695 1.71988e-22)
(-0.192561 0.0858494 1.56437e-22)
(-0.208718 0.0848885 0)
(-0.225288 0.0832977 2.05923e-21)
(-0.242162 0.0809465 -1.60991e-21)
(-0.259192 0.0777325 0)
(-0.276222 0.073581 1.33666e-22)
(-0.293074 0.0684464 5.02461e-23)
(-0.309545 0.0623116 -2.69646e-22)
(-0.325408 0.0551928 2.59047e-22)
(-0.340404 0.0471481 6.49948e-23)
(-0.354256 0.0382905 -2.08316e-23)
(-0.366693 0.0288134 -2.05445e-23)
(-0.377458 0.0190078 -3.81663e-23)
(-0.38626 0.00924216 1.05935e-22)
(-0.392675 -2.45807e-05 -8.28599e-23)
(-0.396506 -0.00823183 -1.19797e-22)
(-0.398181 -0.0148651 -3.39e-23)
(-0.398735 -0.0192389 -8.0543e-25)
(-0.0654412 0.100289 5.51046e-21)
(-0.0745677 0.102329 -4.64937e-22)
(-0.0831803 0.102971 -6.73242e-22)
(-0.0918356 0.102941 -4.76329e-21)
(-0.101261 0.102242 -3.7112e-22)
(-0.111492 0.100687 -1.03761e-22)
(-0.12244 0.0981113 2.17595e-21)
(-0.13403 0.0943978 -1.56631e-21)
(-0.146191 0.0894641 -8.53264e-22)
(-0.158834 0.0832488 2.50822e-22)
(-0.171848 0.0757162 -2.80081e-22)
(-0.185092 0.0668644 8.27861e-23)
(-0.198378 0.0567342 2.06586e-23)
(-0.211475 0.0454693 3.99537e-22)
(-0.224162 0.0333431 -2.82728e-22)
(-0.236134 0.0207428 -3.64161e-22)
(-0.246899 0.00826335 3.04677e-22)
(-0.255915 -0.00332499 0)
(-0.263091 -0.0128673 8.21603e-23)
(-0.267811 -0.0187659 8.43148e-24)
(0.0421786 0.100433 -1.30083e-20)
(0.0410857 0.104347 5.04735e-21)
(0.0394456 0.106319 -5.41575e-21)
(0.0384476 0.107533 0)
(0.0368859 0.108219 2.48646e-22)
(0.0343282 0.108107 3.07493e-21)
(0.0307962 0.10693 -5.0473e-22)
(0.026337 0.104546 -6.82291e-22)
(0.0209399 0.100864 -1.73019e-21)
(0.014573 0.0957972 -4.60404e-23)
(0.00721488 0.0892737 0)
(-0.00115285 0.0812481 -2.64684e-23)
(-0.0105032 0.0717189 0)
(-0.0207173 0.0607448 -7.90093e-23)
(-0.0317339 0.0484369 0)
(-0.0434838 0.0350322 0)
(-0.055664 0.0209905 9.74844e-23)
(-0.0678248 0.00703787 -1.59425e-22)
(-0.0795821 -0.00544606 1.48028e-22)
(-0.0894955 -0.0137414 -4.86787e-23)
(0.169298 0.0885608 0)
(0.174564 0.0947397 3.61626e-22)
(0.177265 0.0978603 1.03678e-20)
(0.181638 0.100116 -1.00491e-20)
(0.186347 0.102141 2.7984e-22)
(0.190289 0.103532 0)
(0.193357 0.103889 2.6128e-21)
(0.195646 0.103061 -4.36895e-21)
(0.197108 0.100976 2.01384e-21)
(0.197609 0.097539 6.20156e-23)
(0.197022 0.0926533 1.93959e-23)
(0.195237 0.0862535 -2.00506e-23)
(0.192147 0.0783317 0)
(0.18767 0.0689259 6.92959e-22)
(0.181722 0.0580784 -1.77058e-21)
(0.174215 0.0459131 8.9073e-22)
(0.165127 0.0327077 -1.13743e-22)
(0.154598 0.0188269 -1.00293e-22)
(0.142464 0.00513562 5.24091e-23)
(0.129501 -0.00577136 -5.29506e-23)
(0.337498 0.0710346 -1.4792e-20)
(0.344601 0.0791959 0)
(0.347142 0.0827401 3.69304e-22)
(0.352599 0.0854711 -6.59329e-22)
(0.359861 0.0884121 -5.81799e-22)
(0.367024 0.0908532 -2.5955e-22)
(0.373772 0.0922788 -2.16177e-22)
(0.380288 0.092611 2.05057e-21)
(0.386516 0.0918281 -2.428e-21)
(0.39223 0.0898239 -9.14444e-22)
(0.397207 0.0864824 7.51474e-22)
(0.401266 0.0817231 2.33846e-23)
(0.404215 0.0755242 -5.05992e-22)
(0.405878 0.0679035 -1.19849e-22)
(0.406035 0.0589474 8.9839e-22)
(0.404515 0.0487526 1.04108e-22)
(0.40104 0.0375977 -2.00138e-22)
(0.395612 0.0256794 1.75581e-22)
(0.387938 0.0136643 4.05593e-22)
(0.37687 0.00176978 2.85842e-23)
(0.566939 0.0569041 0)
(0.570791 0.0653229 1.25344e-20)
(0.569182 0.0676 -1.285e-20)
(0.571656 0.0698865 3.41638e-22)
(0.577332 0.0730201 6.26252e-22)
(0.583741 0.0756355 2.59325e-22)
(0.590446 0.0772495 4.5413e-22)
(0.597692 0.0779831 0)
(0.605384 0.0778455 1.25015e-22)
(0.613219 0.0766782 7.98921e-23)
(0.620907 0.0743442 5.83252e-23)
(0.628245 0.0707461 1.36766e-23)
(0.634956 0.0658739 0)
(0.640859 0.0597046 0)
(0.645579 0.052389 -8.97165e-23)
(0.649013 0.0439438 -9.64657e-22)
(0.650614 0.0348842 6.69893e-22)
(0.650528 0.0250383 -8.12988e-23)
(0.64834 0.0161668 -2.15423e-22)
(0.642616 0.00518221 6.10298e-23)
(0.850747 0.0542721 -1.64731e-20)
(0.849524 0.0596693 0)
(0.844603 0.0589615 0)
(0.844346 0.0602983 1.14114e-20)
(0.847273 0.0626833 -1.56175e-21)
(0.851086 0.0641809 -1.8733e-20)
(0.855607 0.0647721 8.41306e-21)
(0.861112 0.0648091 0)
(0.867431 0.064276 0)
(0.8743 0.0629753 0)
(0.881447 0.0607973 -1.54305e-23)
(0.888764 0.0576194 -3.84285e-23)
(0.895909 0.0534688 3.83894e-22)
(0.902837 0.0482241 -3.6853e-22)
(0.908967 0.0421663 5.56239e-22)
(0.914497 0.0350559 -4.67667e-22)
(0.918503 0.0278411 0)
(0.921576 0.0194857 4.64358e-23)
(0.922528 0.0132182 5.7376e-23)
(0.921582 0.00412737 0)
(1.15458 0.0561145 2.32758e-22)
(1.15752 0.0533433 1.37039e-20)
(1.15724 0.0515602 -1.35615e-20)
(1.15835 0.0536658 0)
(1.15937 0.0560438 -1.07837e-20)
(1.15997 0.057444 2.01966e-20)
(1.16092 0.0582146 -9.42638e-21)
(1.16266 0.0584629 0)
(1.16511 0.0580392 -2.64372e-21)
(1.16823 0.0567457 4.54435e-21)
(1.17184 0.0545759 -1.94932e-21)
(1.17599 0.0513891 2.11094e-23)
(1.18031 0.0473546 0)
(1.18495 0.042229 -3.95637e-22)
(1.18917 0.036583 7.33382e-22)
(1.19345 0.0298149 -3.50486e-22)
(1.19657 0.0234747 -4.55813e-22)
(1.19955 0.015725 2.91187e-22)
(1.20082 0.0107393 1.89977e-22)
(1.2016 0.00287957 0)
(1.49553 0.0602322 0)
(1.47651 0.0564255 0)
(1.46415 0.0546837 0)
(1.45455 0.0543161 0)
(1.44642 0.0541563 0)
(1.43987 0.0538939 0)
(1.43508 0.0534829 0)
(1.43199 0.0527391 0)
(1.43024 0.0515788 0)
(1.42968 0.0498145 0)
(1.42996 0.0475117 0)
(1.43109 0.044416 0)
(1.4326 0.0408264 0)
(1.43463 0.0362847 0)
(1.43652 0.0316064 0)
(1.43859 0.0257844 0)
(1.44001 0.0207675 0)
(1.44129 0.0141303 0)
(1.44175 0.0103069 0)
(1.44128 0.00343556 0)
(1.64734 0.0666534 0)
(1.64267 0.0665785 0)
(1.64024 0.0658266 0)
(1.63811 0.0644165 0)
(1.63572 0.0627904 0)
(1.63352 0.0610999 0)
(1.63186 0.0593358 0)
(1.6309 0.0573041 0)
(1.63052 0.0549942 0)
(1.63069 0.0521901 0)
(1.63123 0.0490478 0)
(1.63213 0.0452292 0)
(1.63315 0.0411799 0)
(1.63429 0.036276 0)
(1.63527 0.031557 0)
(1.63603 0.0257399 0)
(1.63651 0.021049 0)
(1.63623 0.0147181 0)
(1.63602 0.0113103 0)
(1.63406 0.00496972 0)
(1.75025 0.0678484 0)
(1.75076 0.0669156 0)
(1.75219 0.0659234 0)
(1.75412 0.0643247 0)
(1.75616 0.0624805 0)
(1.75829 0.0605603 0)
(1.7606 0.0585934 0)
(1.76311 0.0563576 0)
(1.76577 0.0538852 0)
(1.7685 0.0509175 0)
(1.77123 0.0477009 0)
(1.77385 0.0438277 0)
(1.77632 0.0398768 0)
(1.77847 0.0350942 0)
(1.78034 0.0306912 0)
(1.78161 0.0251917 0)
(1.78262 0.0209908 0)
(1.78261 0.0151387 0)
(1.78277 0.0122468 0)
(1.78129 0.00648975 0)
(1.82658 0.0669139 0)
(1.82995 0.0645567 0)
(1.8332 0.0626912 0)
(1.83686 0.0607155 0)
(1.84094 0.0586663 0)
(1.84528 0.0565671 0)
(1.84978 0.0544754 0)
(1.85436 0.0521678 0)
(1.85898 0.0497172 0)
(1.86353 0.0468245 0)
(1.86796 0.0437915 0)
(1.87213 0.0401543 0)
(1.87603 0.0365686 0)
(1.87948 0.0321991 0)
(1.88252 0.0283321 0)
(1.88493 0.0234044 0)
(1.88687 0.0198305 0)
(1.88807 0.0146521 0)
(1.88888 0.0122867 0)
(1.88898 0.00715428 0)
(1.89028 0.0639659 0)
(1.89531 0.0606961 0)
(1.89981 0.058147 0)
(1.90442 0.0558596 0)
(1.90942 0.0536642 0)
(1.9147 0.0514342 0)
(1.92014 0.0492369 0)
(1.92561 0.0468701 0)
(1.93109 0.0444515 0)
(1.93645 0.0416666 0)
(1.94167 0.0388435 0)
(1.94663 0.0354926 0)
(1.95127 0.0322908 0)
(1.95553 0.0283827 0)
(1.95927 0.0250399 0)
(1.9626 0.020716 0)
(1.96519 0.0177112 0)
(1.96756 0.0132041 0)
(1.96883 0.0112559 0)
(1.97055 0.0067386 0)
(1.95196 0.0594849 0)
(1.95776 0.0558603 0)
(1.96294 0.0529479 0)
(1.96798 0.0504411 0)
(1.97324 0.0481376 0)
(1.97873 0.0458308 0)
(1.98437 0.0435782 0)
(1.99002 0.0411934 0)
(1.99563 0.0388252 0)
(2.00114 0.0361644 0)
(2.00647 0.0335431 0)
(2.0116 0.0304748 0)
(2.01638 0.0276181 0)
(2.02092 0.0241436 0)
(2.02485 0.0212516 0)
(2.02865 0.0174802 0)
(2.03147 0.0149411 0)
(2.03457 0.011036 0)
(2.03605 0.00941473 0)
(2.03888 0.00547871 0)
(2.01698 0.0543476 0)
(2.02297 0.0507159 0)
(2.02836 0.0476592 0)
(2.03342 0.0450057 0)
(2.03854 0.0426142 0)
(2.04382 0.0402632 0)
(2.04921 0.0379951 0)
(2.05462 0.0356291 0)
(2.05996 0.0333264 0)
(2.06521 0.0307952 0)
(2.07026 0.0283583 0)
(2.07517 0.0255506 0)
(2.0797 0.0229904 0)
(2.08412 0.0198999 0)
(2.08789 0.0173808 0)
(2.09173 0.0140873 0)
(2.09448 0.0119221 0)
(2.09785 0.00853874 0)
(2.09935 0.00717831 0)
(2.10267 0.0037593 0)
(2.08642 0.0491522 0)
(2.09226 0.0456492 0)
(2.09754 0.0425729 0)
(2.10243 0.0398478 0)
(2.10724 0.0374059 0)
(2.11212 0.0350437 0)
(2.11708 0.0327936 0)
(2.12203 0.0304764 0)
(2.1269 0.028253 0)
(2.13168 0.0258527 0)
(2.13625 0.0235833 0)
(2.14071 0.02101 0)
(2.14481 0.0187028 0)
(2.14885 0.0159438 0)
(2.15227 0.0137319 0)
(2.15586 0.0108438 0)
(2.15838 0.00898042 0)
(2.16165 0.00604052 0)
(2.16303 0.00488612 0)
(2.16636 0.00191232 0)
(2.15905 0.044097 0)
(2.16459 0.0407673 0)
(2.16965 0.0377603 0)
(2.17428 0.0350472 0)
(2.17874 0.0326122 0)
(2.18319 0.0302801 0)
(2.18765 0.0280816 0)
(2.19209 0.025842 0)
(2.19644 0.0237145 0)
(2.20067 0.0214506 0)
(2.20471 0.0193395 0)
(2.20863 0.0169806 0)
(2.21222 0.0148943 0)
(2.21578 0.0124243 0)
(2.21876 0.0104702 0)
(2.22194 0.00792762 0)
(2.22414 0.00631102 0)
(2.22706 0.00374772 0)
(2.22827 0.00275749 0)
(2.23128 0.000169108 0)
(2.23277 0.0392025 0)
(2.23799 0.0360837 0)
(2.2428 0.0332203 0)
(2.24717 0.0305976 0)
(2.25132 0.0282305 0)
(2.25536 0.0259733 0)
(2.25937 0.0238605 0)
(2.26331 0.0217269 0)
(2.26715 0.0197153 0)
(2.27085 0.0175983 0)
(2.27437 0.0156449 0)
(2.27774 0.0134893 0)
(2.28084 0.0116039 0)
(2.28386 0.00939322 0)
(2.28641 0.00766248 0)
(2.28908 0.00542114 0)
(2.29096 0.00401156 0)
(2.2934 0.00177323 0)
(2.29443 0.000919154 0)
(2.29692 -0.0013295 0)
(2.30527 0.03446 0)
(2.31022 0.0315943 0)
(2.31481 0.0289306 0)
(2.31895 0.0264599 0)
(2.32283 0.024215 0)
(2.32652 0.0220761 0)
(2.33015 0.0200829 0)
(2.33365 0.0180836 0)
(2.33705 0.0162098 0)
(2.34026 0.0142544 0)
(2.34332 0.0124644 0)
(2.34618 0.0105096 0)
(2.34883 0.00881492 0)
(2.35133 0.00684529 0)
(2.35349 0.00531597 0)
(2.35563 0.00334608 0)
(2.35721 0.00211696 0)
(2.3591 0.000167945 0)
(2.35996 -0.000568771 0)
(2.36185 -0.00251015 0)
(2.37432 0.0298447 0)
(2.37906 0.0272666 0)
(2.38348 0.0248421 0)
(2.38745 0.02257 0)
(2.39113 0.0204938 0)
(2.39455 0.0185146 0)
(2.39787 0.0166754 0)
(2.401 0.0148395 0)
(2.40404 0.0131269 0)
(2.40683 0.0113514 0)
(2.4095 0.00973578 0)
(2.4119 0.00798607 0)
(2.41417 0.00647989 0)
(2.41618 0.00474302 0)
(2.41799 0.00340303 0)
(2.41963 0.00168728 0)
(2.42093 0.000622632 0)
(2.42228 -0.00105768 0)
(2.42299 -0.00169003 0)
(2.42425 -0.00334783 0)
(2.43818 0.0253137 0)
(2.44273 0.023049 0)
(2.44701 0.0208954 0)
(2.45083 0.0188609 0)
(2.45435 0.0169946 0)
(2.45755 0.0152143 0)
(2.46062 0.0135633 0)
(2.46344 0.0119208 0)
(2.46617 0.0103942 0)
(2.46859 0.00881888 0)
(2.47094 0.00739232 0)
(2.47292 0.00585722 0)
(2.47486 0.00454323 0)
(2.47642 0.00303827 0)
(2.47794 0.00188257 0)
(2.47909 0.000412772 0)
(2.48016 -0.000495672 0)
(2.48098 -0.00192009 0)
(2.48155 -0.00245595 0)
(2.4822 -0.00384633 0)
(2.49568 0.020868 0)
(2.5 0.0189357 0)
(2.50409 0.0170798 0)
(2.50772 0.0153153 0)
(2.51106 0.0136931 0)
(2.51402 0.0121452 0)
(2.51684 0.0107125 0)
(2.51935 0.0092898 0)
(2.52179 0.00797149 0)
(2.52385 0.00661544 0)
(2.52589 0.0053921 0)
(2.52749 0.00408204 0)
(2.52912 0.00296579 0)
(2.53026 0.0016946 0)
(2.5315 0.000721934 0)
(2.5322 -0.000506116 0)
(2.53305 -0.00126378 0)
(2.53337 -0.00244195 0)
(2.53381 -0.00288608 0)
(2.53388 -0.00402087 0)
(2.5459 0.0166155 0)
(2.54985 0.0150227 0)
(2.55363 0.0134793 0)
(2.55698 0.0120037 0)
(2.56004 0.0106462 0)
(2.56269 0.00935101 0)
(2.56521 0.00815486 0)
(2.56737 0.00696839 0)
(2.56948 0.00587199 0)
(2.57117 0.00474629 0)
(2.57288 0.00373432 0)
(2.5741 0.00265432 0)
(2.57542 0.00173783 0)
(2.57615 0.000698073 0)
(2.57711 -9.30876e-05 0)
(2.5774 -0.00108634 0)
(2.57802 -0.00169898 0)
(2.57789 -0.00264203 0)
(2.5782 -0.00299858 0)
(2.57774 -0.00389309 0)
(2.58765 0.0127286 0)
(2.59111 0.0114645 0)
(2.59447 0.0102305 0)
(2.59743 0.00904549 0)
(2.60014 0.00795592 0)
(2.60242 0.00691701 0)
(2.60458 0.00596026 0)
(2.60635 0.00501171 0)
(2.6081 0.00413789 0)
(2.60941 0.00324147 0)
(2.61078 0.00243893 0)
(2.61161 0.00158437 0)
(2.61262 0.000862072 0)
(2.61298 4.59474e-05 0)
(2.61367 -0.000572118 0)
(2.61357 -0.00134503 0)
(2.61399 -0.00182113 0)
(2.61346 -0.00254598 0)
(2.61365 -0.00282084 0)
(2.61274 -0.00349701 0)
(2.6198 0.00929696 0)
(2.62276 0.00833879 0)
(2.62567 0.00739985 0)
(2.62823 0.00649675 0)
(2.63056 0.00566851 0)
(2.63247 0.00487956 0)
(2.63427 0.00415515 0)
(2.63567 0.00343671 0)
(2.63708 0.00277693 0)
(2.63803 0.00210015 0)
(2.63909 0.00149711 0)
(2.63959 0.000855792 0)
(2.64031 0.0003161 0)
(2.64036 -0.00029102 0)
(2.64081 -0.000749951 0)
(2.64041 -0.00132151 0)
(2.64064 -0.00167238 0)
(2.6398 -0.00220137 0)
(2.63989 -0.00240228 0)
(2.63865 -0.00288738 0)
(2.64225 0.00627225 0)
(2.64478 0.00559405 0)
(2.64732 0.00493324 0)
(2.64954 0.00430165 0)
(2.65155 0.00372678 0)
(2.65314 0.00318033 0)
(2.65463 0.00268006 0)
(2.65573 0.00218284 0)
(2.65685 0.00172725 0)
(2.65753 0.00125927 0)
(2.65832 0.00084409 0)
(2.65857 0.00040221 0)
(2.65907 3.31772e-05 0)
(2.65889 -0.000382924 0)
(2.65915 -0.000696047 0)
(2.65854 -0.00108527 0)
(2.65863 -0.0013229 0)
(2.65759 -0.00167911 0)
(2.6576 -0.0018141 0)
(2.65616 -0.00213547 0)
(2.65614 0.00367429 0)
(2.65836 0.00323532 0)
(2.66062 0.00282088 0)
(2.66258 0.0024361 0)
(2.66435 0.00209381 0)
(2.66572 0.00177186 0)
(2.66698 0.00147955 0)
(2.66786 0.0011885 0)
(2.66877 0.000923198 0)
(2.66925 0.000649502 0)
(2.66986 0.000408711 0)
(2.66994 0.00015097 0)
(2.67028 -6.19613e-05 0)
(2.66995 -0.000303556 0)
(2.67008 -0.000483278 0)
(2.66934 -0.000708082 0)
(2.66934 -0.000843599 0)
(2.6682 -0.00104775 0)
(2.66815 -0.00112409 0)
(2.6666 -0.0013056 0)
(2.66274 0.00139575 0)
(2.66479 0.00119962 0)
(2.6669 0.00102465 0)
(2.66873 0.000870305 0)
(2.67038 0.000738081 0)
(2.67161 0.000617617 0)
(2.67275 0.000510757 0)
(2.67351 0.000406371 0)
(2.6743 0.000312841 0)
(2.67468 0.000217333 0)
(2.67519 0.000134663 0)
(2.67518 4.65564e-05 0)
(2.67544 -2.56097e-05 0)
(2.67503 -0.000106869 0)
(2.6751 -0.000166432 0)
(2.6743 -0.000241159 0)
(2.67424 -0.000285647 0)
(2.67305 -0.000353014 0)
(2.67298 -0.000377843 0)
(2.67138 -0.000437123 0)
(1.82677 0.149241 2.26084e-21)
(1.8395 0.13784 0)
(1.84327 0.12639 -4.15933e-22)
(1.83997 0.115169 -1.25932e-20)
(1.82738 0.104518 2.14286e-20)
(1.81119 0.0953962 0)
(1.78327 0.0861337 1.82299e-20)
(1.74513 0.0818518 0)
(1.70895 0.0698546 1.66408e-20)
(1.52383 0.0609717 -2.45833e-22)
(1.874 0.136798 -2.53989e-21)
(1.88516 0.127496 5.11199e-22)
(1.88788 0.117832 -5.1223e-22)
(1.88355 0.10967 -1.02609e-21)
(1.87288 0.100512 -1.18965e-20)
(1.85274 0.09509 -7.21632e-22)
(1.84092 0.0867083 0)
(1.7861 0.084383 -1.84646e-20)
(1.80496 0.0794948 0)
(1.65383 0.0678341 -1.53361e-20)
(1.9276 0.124335 5.21386e-21)
(1.93553 0.116798 0)
(1.93929 0.108041 -4.84821e-22)
(1.92981 0.101921 -4.79685e-22)
(1.92566 0.0939205 1.26336e-20)
(1.89402 0.0900572 0)
(1.89902 0.0843818 2.14557e-20)
(1.8294 0.0801481 1.90092e-20)
(1.86011 0.0800608 0)
(1.75014 0.0710293 1.51786e-20)
(1.98546 0.113093 -2.3522e-21)
(1.98917 0.106731 9.6109e-21)
(1.99636 0.0991416 0)
(1.98015 0.0938246 1.51321e-20)
(1.98334 0.0875827 8.28914e-22)
(1.94211 0.0829714 -1.57778e-21)
(1.95349 0.0799713 -2.06096e-20)
(1.88378 0.0740423 -6.76684e-22)
(1.90309 0.0747678 -1.97111e-20)
(1.8225 0.0707485 0)
(2.04559 0.102959 0)
(2.04561 0.0972255 -9.37413e-21)
(2.05609 0.0912066 -1.05007e-20)
(2.03564 0.0858853 1.52242e-21)
(2.04231 0.0815487 -9.79084e-22)
(1.99927 0.076089 -7.96761e-22)
(2.00702 0.0743739 -2.35436e-20)
(1.94621 0.0692126 -1.37734e-21)
(1.95192 0.0685556 -4.97736e-22)
(1.88455 0.0680207 1.84411e-20)
(2.10624 0.0936144 2.96203e-21)
(2.10447 0.0882565 6.29741e-22)
(2.1161 0.0836665 -1.54989e-21)
(2.09554 0.0783938 5.68401e-22)
(2.10146 0.0752481 -1.5999e-20)
(2.06258 0.0701591 0)
(2.06407 0.0683491 2.57682e-20)
(2.01187 0.0651713 -7.60932e-22)
(2.01009 0.0628337 4.22607e-20)
(1.94582 0.0636326 -3.76484e-20)
(2.16613 0.0847782 -2.97661e-21)
(2.16449 0.0799038 -5.54035e-21)
(2.17549 0.076204 9.77848e-21)
(2.15751 0.0714955 -1.72299e-20)
(2.16135 0.0686783 -1.72314e-21)
(2.12795 0.0647984 -1.50689e-20)
(2.12578 0.0622922 7.98409e-22)
(2.07851 0.0606433 -1.51966e-21)
(2.07489 0.0573082 -2.08124e-20)
(2.01087 0.0583513 1.91997e-20)
(2.2244 0.0762771 0)
(2.22379 0.0721001 1.19406e-20)
(2.23387 0.0688184 -1.28681e-21)
(2.219 0.0650277 9.49304e-21)
(2.22188 0.0621235 -5.93866e-22)
(2.19273 0.0594349 2.98136e-20)
(2.19035 0.0563855 -1.33826e-20)
(2.14582 0.0554607 0)
(2.14332 0.0519368 0)
(2.08053 0.0528839 0)
(2.28025 0.0680621 0)
(2.2807 0.0646612 -1.08806e-20)
(2.29052 0.0616113 -6.92009e-22)
(2.27818 0.0587223 9.50307e-21)
(2.28176 0.0557723 1.73188e-20)
(2.25568 0.0538781 -1.66209e-20)
(2.25518 0.050746 1.60843e-20)
(2.21342 0.0500965 -8.61943e-22)
(2.21301 0.0468355 0)
(2.15351 0.0475721 1.10209e-20)
(2.33295 0.0601136 3.8767e-22)
(2.33417 0.0574094 6.19961e-21)
(2.3444 0.0546228 9.62918e-21)
(2.33404 0.0524218 -5.42851e-22)
(2.33925 0.0496484 1.18353e-21)
(2.316 0.0482157 -1.77188e-20)
(2.31802 0.0453624 1.71664e-20)
(2.28008 0.0448241 -8.90715e-22)
(2.28176 0.0419321 0)
(2.22757 0.0424389 -2.2311e-20)
(2.38208 0.0524045 0)
(2.38387 0.0502532 6.10646e-21)
(2.39468 0.0478232 2.05926e-22)
(2.38614 0.0461004 0)
(2.39301 0.0436841 0)
(2.37292 0.0425374 1.57055e-20)
(2.37718 0.0401023 -1.42432e-20)
(2.34414 0.039624 -8.435e-22)
(2.34751 0.0370839 4.49716e-22)
(2.30032 0.0374258 1.16643e-20)
(2.4277 0.0449346 0)
(2.43001 0.0431996 -1.1611e-20)
(2.44112 0.0411803 -1.27074e-20)
(2.43443 0.0397997 1.9329e-21)
(2.4424 0.0378067 -1.24231e-21)
(2.42585 0.0368674 -1.04654e-21)
(2.43161 0.0348451 1.98576e-21)
(2.40419 0.0344292 1.27932e-20)
(2.4087 0.0322246 1.2464e-21)
(2.36956 0.0324951 -3.86409e-22)
(2.4702 0.0378296 0)
(2.47301 0.036394 6.24875e-21)
(2.48387 0.0347612 -6.97575e-22)
(2.4791 0.0336331 6.91815e-22)
(2.48742 0.0320292 0)
(2.47456 0.0312545 0)
(2.48096 0.0295862 0)
(2.45938 0.0292491 -1.45319e-20)
(2.46442 0.0273653 1.35814e-20)
(2.43357 0.0276198 0)
(2.50962 0.0311012 0)
(2.51286 0.0299551 3.97842e-21)
(2.52293 0.0286796 5.162e-21)
(2.52007 0.0277568 6.7538e-21)
(2.52805 0.0264742 -1.28916e-21)
(2.51881 0.0258316 8.04254e-21)
(2.52516 0.024453 -7.26831e-21)
(2.50921 0.0241827 0)
(2.51428 0.0225925 7.20975e-22)
(2.49129 0.0228175 -1.28835e-20)
(2.54503 0.024934 -8.75818e-22)
(2.54864 0.0240612 -3.2235e-21)
(2.55757 0.0230942 -6.67179e-21)
(2.55652 0.0223426 -4.75065e-21)
(2.56376 0.0213198 0)
(2.55792 0.0207764 -1.02419e-20)
(2.56378 0.0196411 1.04227e-20)
(2.55301 0.0193941 -9.89825e-22)
(2.55774 0.0180711 -6.71677e-21)
(2.54187 0.0182103 1.86855e-20)
(2.57455 0.0195255 8.80313e-22)
(2.5786 0.0188465 -2.49566e-21)
(2.58632 0.0181115 2.25476e-21)
(2.587 0.017498 -5.59583e-21)
(2.59334 0.0166901 0)
(2.59059 0.0162196 0)
(2.59578 0.015301 1.0249e-21)
(2.58958 0.0150415 -9.69567e-21)
(2.59378 0.0139689 -6.02542e-21)
(2.58411 0.0139871 -6.26007e-21)
(2.59696 0.0146687 0)
(2.60151 0.0141655 4.1028e-21)
(2.60822 0.0136317 -1.51418e-21)
(2.61041 0.0131575 4.98109e-21)
(2.61593 0.0125461 1.33862e-21)
(2.61577 0.0121506 -1.13831e-21)
(2.62026 0.011436 2.14767e-21)
(2.61781 0.0111683 6.71995e-21)
(2.62144 0.0103321 0)
(2.61678 0.0102492 0)
(2.61287 0.0101585 0)
(2.61784 0.00984801 1.67349e-21)
(2.62374 0.00951234 -3.08294e-21)
(2.62704 0.00919648 0)
(2.63188 0.0087783 -2.61238e-21)
(2.63357 0.00847912 -1.14813e-21)
(2.63747 0.00796169 -3.21592e-21)
(2.63767 0.00771282 -9.44778e-22)
(2.64079 0.00709622 4.89823e-22)
(2.63967 0.00694999 4.13647e-22)
(2.62381 0.00589474 0)
(2.62887 0.00579758 -1.68151e-21)
(2.63413 0.00567846 -1.53213e-21)
(2.63799 0.0055547 2.12671e-21)
(2.64228 0.00535069 1.25771e-21)
(2.64503 0.00518835 1.19727e-21)
(2.64846 0.00488147 5.37375e-21)
(2.65021 0.00469567 -3.93172e-21)
(2.65294 0.00429131 9.16941e-22)
(2.6539 0.00412147 0)
(2.62984 0.00177174 0)
(2.63481 0.00185941 8.2438e-22)
(2.63964 0.00193477 -7.90066e-22)
(2.64367 0.00199446 7.49593e-22)
(2.64763 0.002007 0)
(2.65078 0.0020082 -1.20321e-21)
(2.65394 0.00193761 1.05562e-21)
(2.65633 0.00187605 9.45694e-22)
(2.65883 0.00172077 0)
(2.66069 0.00160771 0)
(1.17944 0.257757 0)
(1.12424 0.281294 -5.94431e-20)
(1.08026 0.312796 0)
(1.04443 0.353323 -1.97431e-19)
(1.0129 0.402353 7.46337e-20)
(0.983544 0.461743 2.29239e-21)
(0.953645 0.532293 6.57953e-20)
(0.904993 0.602641 -7.65107e-21)
(0.773808 0.614173 0)
(0.433401 0.378251 6.75619e-20)
(1.26672 0.260597 1.0872e-19)
(1.21341 0.290677 5.94415e-20)
(1.17061 0.32101 -5.69488e-20)
(1.13503 0.360244 6.6422e-20)
(1.10476 0.409068 -5.75601e-20)
(1.07882 0.46828 7.73311e-21)
(1.05393 0.538018 -6.78046e-20)
(1.00882 0.605813 -1.34876e-19)
(0.869861 0.612228 -3.58447e-20)
(0.486741 0.369952 -9.90193e-20)
(1.34906 0.259323 -4.86365e-20)
(1.30067 0.291657 5.04528e-20)
(1.25997 0.32141 5.69467e-20)
(1.2245 0.359756 5.85042e-20)
(1.19509 0.407956 5.98679e-20)
(1.17221 0.466101 6.07364e-20)
(1.15172 0.53358 9.16415e-21)
(1.10867 0.5965 5.88306e-20)
(0.959539 0.595625 2.28928e-20)
(0.532553 0.350509 -2.44376e-20)
(1.4292 0.255433 9.71324e-20)
(1.38447 0.288049 -5.04505e-20)
(1.34551 0.316832 0)
(1.31048 0.353678 0)
(1.28211 0.40013 0)
(1.26195 0.455887 4.63029e-20)
(1.24478 0.519478 -4.04385e-20)
(1.20146 0.575096 0)
(1.03882 0.564786 1.65063e-20)
(0.567125 0.320558 -3.35787e-20)
(1.50502 0.24859 -1.85778e-20)
(1.46252 0.280167 6.65633e-20)
(1.42493 0.307725 0)
(1.39081 0.342632 0)
(1.36383 0.386366 1.95605e-20)
(1.34604 0.438482 1.86059e-20)
(1.33078 0.496634 2.55517e-20)
(1.28415 0.542467 1.38933e-20)
(1.10328 0.52091 2.01351e-20)