/*--------------------------------*- C++ -*----------------------------------*\
| =========                 |                                                 |
| \\      /  F ield         | OpenFOAM: The Open Source CFD Toolbox           |
|  \\    /   O peration     | Version:  4.1                                   |
|   \\  /    A nd           | Web:      www.OpenFOAM.org                      |
|    \\/     M anipulation  |                                                 |
\*---------------------------------------------------------------------------*/
FoamFile
{
    version     2.0;
    format      ascii;
    class       volScalarField;
    location    "5.8";
    object      p;
}
// * * * * * * * * * * * * * * * * * * * * * * * * * * * * * * * * * * * * * //

dimensions      [0 2 -2 0 0 0 0];

internalField   nonuniform List<scalar> 
2000
(
-0.388823
-0.376785
-0.366463
-0.356785
-0.346919
-0.33554
-0.321422
-0.304613
-0.283472
-0.262783
-0.410904
-0.395527
-0.382794
-0.370088
-0.355758
-0.33868
-0.318553
-0.295932
-0.271073
-0.24728
-0.436919
-0.417651
-0.401878
-0.384823
-0.364239
-0.340044
-0.313234
-0.285205
-0.256755
-0.229741
-0.46654
-0.442794
-0.423013
-0.399693
-0.370929
-0.338555
-0.304973
-0.271983
-0.240435
-0.212007
-0.498699
-0.469979
-0.444702
-0.412774
-0.374161
-0.333136
-0.293054
-0.255598
-0.221426
-0.191045
-0.531486
-0.497494
-0.46452
-0.421654
-0.372212
-0.322694
-0.276689
-0.235361
-0.198797
-0.166674
-0.561986
-0.522744
-0.479396
-0.423816
-0.363475
-0.306181
-0.255028
-0.210378
-0.17168
-0.13778
-0.586559
-0.542197
-0.486173
-0.417064
-0.34657
-0.28261
-0.22722
-0.179865
-0.139297
-0.103837
-0.601405
-0.551858
-0.481914
-0.399649
-0.320364
-0.251071
-0.192458
-0.143099
-0.101106
-0.0645251
-0.603093
-0.548068
-0.464069
-0.37023
-0.283977
-0.210795
-0.150014
-0.0994429
-0.0566913
-0.0197671
-0.280897
-0.286771
-0.288929
-0.290047
-0.290316
-0.289261
-0.286509
-0.281829
-0.275223
-0.267064
-0.28477
-0.29009
-0.292106
-0.2933
-0.293755
-0.292956
-0.290487
-0.286029
-0.279433
-0.271327
-0.291875
-0.296084
-0.297801
-0.29902
-0.299697
-0.299262
-0.29722
-0.29313
-0.28655
-0.278189
-0.301066
-0.303763
-0.304901
-0.305906
-0.306636
-0.306461
-0.304799
-0.301167
-0.294859
-0.285254
-0.311216
-0.312166
-0.312353
-0.31273
-0.313167
-0.31295
-0.31144
-0.308
-0.301753
-0.290855
-0.321591
-0.320682
-0.319556
-0.318863
-0.318494
-0.317853
-0.316143
-0.312544
-0.306733
-0.293653
-0.332057
-0.329254
-0.326517
-0.324356
-0.322813
-0.321355
-0.31907
-0.314776
-0.309341
-0.29417
-0.343092
-0.338348
-0.333823
-0.329989
-0.327028
-0.324383
-0.321001
-0.315426
-0.309367
-0.293071
-0.355588
-0.348754
-0.342382
-0.336805
-0.332175
-0.327745
-0.322254
-0.314588
-0.305942
-0.289612
-0.370553
-0.361334
-0.353064
-0.345626
-0.33883
-0.331607
-0.322475
-0.311037
-0.296993
-0.280787
-0.257766
-0.246268
-0.232919
-0.217878
-0.201317
-0.183464
-0.16461
-0.145089
-0.125243
-0.105489
-0.0862042
-0.0678221
-0.0506973
-0.0351828
-0.0216003
-0.0102434
-0.00138768
0.0046949
0.00743568
0.0089279
-0.26334
-0.252031
-0.238763
-0.22376
-0.207203
-0.189294
-0.170342
-0.150656
-0.130477
-0.110505
-0.0909823
-0.0723247
-0.0549218
-0.0391299
-0.0252698
-0.0136257
-0.00446293
0.00205072
0.00519511
0.00747359
-0.273199
-0.261779
-0.248723
-0.23341
-0.217011
-0.199092
-0.17999
-0.160062
-0.13968
-0.119294
-0.0993272
-0.0802022
-0.0623168
-0.0460339
-0.0316712
-0.0194903
-0.00974436
-0.0024391
0.001588
0.00503946
-0.283143
-0.272752
-0.259468
-0.244762
-0.228479
-0.210587
-0.191372
-0.17121
-0.150513
-0.129725
-0.109289
-0.0896474
-0.0712098
-0.0543444
-0.0393616
-0.0264912
-0.0159681
-0.00765336
-0.00236495
0.0024693
-0.291243
-0.282651
-0.269388
-0.25476
-0.238774
-0.22112
-0.201968
-0.181725
-0.160841
-0.139772
-0.118976
-0.0989108
-0.0799912
-0.0625881
-0.0469949
-0.0334169
-0.0220429
-0.0126884
-0.0059543
0.000187343
-0.296034
-0.289237
-0.276314
-0.261787
-0.246149
-0.228876
-0.209968
-0.189837
-0.168968
-0.147834
-0.1269
-0.106625
-0.0874176
-0.0696477
-0.0535771
-0.039411
-0.0272512
-0.016996
-0.0088763
-0.00168578
-0.297158
-0.291193
-0.278646
-0.264456
-0.249291
-0.232492
-0.21401
-0.194244
-0.173677
-0.152787
-0.132036
-0.111875
-0.0926838
-0.0748277
-0.0585208
-0.0439955
-0.0312375
-0.0203204
-0.0110577
-0.00313156
-0.294683
-0.288076
-0.275752
-0.262107
-0.247456
-0.231246
-0.213458
-0.194405
-0.174513
-0.154257
-0.134087
-0.114436
-0.0956362
-0.0780378
-0.0617962
-0.0471862
-0.0340752
-0.0227389
-0.0126162
-0.0041794
-0.288851
-0.28096
-0.268954
-0.255657
-0.241384
-0.22595
-0.209212
-0.191258
-0.172425
-0.153184
-0.133952
-0.115132
-0.0970045
-0.0799126
-0.063959
-0.0494651
-0.0362038
-0.0246263
-0.0138803
-0.00499367
-0.278534
-0.27076
-0.259017
-0.245175
-0.230846
-0.216169
-0.200604
-0.18395
-0.166441
-0.148506
-0.130513
-0.112828
-0.095682
-0.0794132
-0.0640773
-0.050041
-0.037003
-0.0255426
-0.0146147
-0.00555817
-0.250723
-0.252518
-0.242033
-0.22744
-0.213085
-0.19923
-0.184904
-0.169638
-0.153592
-0.137193
-0.120789
-0.104699
-0.0890857
-0.0742445
-0.0601772
-0.0472501
-0.0351087
-0.0243974
-0.0139848
-0.00543183
-0.221423
-0.228134
-0.219012
-0.204211
-0.190197
-0.177613
-0.165076
-0.151738
-0.137633
-0.123182
-0.108728
-0.0945453
-0.0807411
-0.0675652
-0.0549869
-0.0433635
-0.0323268
-0.0225547
-0.0129099
-0.00508467
-0.192548
-0.20149
-0.194342
-0.180963
-0.168295
-0.157319
-0.146616
-0.135179
-0.122949
-0.110331
-0.0976591
-0.0851902
-0.0729977
-0.0613054
-0.0500634
-0.0396262
-0.0296244
-0.0207588
-0.0119052
-0.00479827
-0.164616
-0.174686
-0.169824
-0.15865
-0.147747
-0.138351
-0.12927
-0.119524
-0.108997
-0.0980504
-0.0869993
-0.0760872
-0.0653689
-0.0550503
-0.0450664
-0.0357675
-0.0267855
-0.0188312
-0.0107969
-0.00443082
-0.138098
-0.14887
-0.146237
-0.137437
-0.128417
-0.12056
-0.112963
-0.104764
-0.0958155
-0.086423
-0.0768714
-0.0673929
-0.0580334
-0.0489875
-0.0401811
-0.0319594
-0.0239587
-0.0168932
-0.00967822
-0.00405832
-0.113572
-0.124698
-0.124005
-0.117468
-0.110317
-0.103962
-0.0977554
-0.0909765
-0.0834767
-0.0755113
-0.0673331
-0.0591642
-0.0510474
-0.0431718
-0.0354582
-0.0282474
-0.0211812
-0.0149731
-0.0085623
-0.00367946
-0.0912588
-0.102413
-0.103323
-0.098845
-0.0934721
-0.0885526
-0.0836413
-0.0781591
-0.0719759
-0.0653102
-0.0583849
-0.051412
-0.0444327
-0.0376339
-0.0309339
-0.0246695
-0.0184882
-0.0131006
-0.00746892
-0.00330596
-0.0710614
-0.0820511
-0.0842721
-0.0816202
-0.0778865
-0.0743078
-0.0705916
-0.0662894
-0.0612995
-0.0558148
-0.0500315
-0.0441508
-0.0382131
-0.0324041
-0.0266417
-0.0212595
-0.0159103
-0.0113008
-0.00641445
-0.00294505
-0.0528513
-0.0635867
-0.0668777
-0.0658177
-0.0635606
-0.061209
-0.058585
-0.0553529
-0.0514422
-0.0470274
-0.0422816
-0.0373955
-0.0324088
-0.0275068
-0.022608
-0.0180432
-0.0134705
-0.00959227
-0.00541091
-0.0026014
-0.0365381
-0.0469697
-0.0511279
-0.0514395
-0.0504911
-0.0492451
-0.0476091
-0.0453419
-0.0424028
-0.0389523
-0.0351443
-0.0311596
-0.0270371
-0.022962
-0.018854
-0.0150416
-0.0111877
-0.00799003
-0.00446796
-0.00227857
-0.0220303
-0.0321289
-0.0369872
-0.0384723
-0.038671
-0.0384084
-0.0376561
-0.0362522
-0.0341818
-0.0315948
-0.0286285
-0.0254554
-0.022113
-0.0187868
-0.0153976
-0.0122719
-0.00907692
-0.00650601
-0.00359334
-0.00197924
-0.00923099
-0.0189897
-0.0244123
-0.0268959
-0.0280903
-0.0286916
-0.0287206
-0.0280811
-0.0267807
-0.0249603
-0.0227431
-0.0202942
-0.01765
-0.0149957
-0.0122535
-0.00974804
-0.00715051
-0.00514982
-0.00279316
-0.00170547
0.00194594
-0.0074839
-0.0133599
-0.016687
-0.0187363
-0.020087
-0.0207976
-0.0208268
-0.0202011
-0.0190538
-0.0174959
-0.015686
-0.0136593
-0.0116009
-0.00943398
-0.00748157
-0.00541836
-0.00392909
-0.00207229
-0.00145888
0.0115737
0.00245004
-0.00378773
-0.00782015
-0.0105945
-0.0125856
-0.0138818
-0.0144872
-0.0144443
-0.0138794
-0.0128934
-0.0116389
-0.0101502
-0.00861215
-0.00694884
-0.00548168
-0.00388841
-0.00284996
-0.0014346
-0.00124078
0.0197166
0.0108677
0.00434398
-0.000270001
-0.00364912
-0.00617791
-0.00796754
-0.00906005
-0.00951076
-0.0094403
-0.00894071
-0.00815957
-0.00713047
-0.0060376
-0.00480605
-0.00375575
-0.00256701
-0.0019173
-0.00088318
-0.0010522
0.0264303
0.0178179
0.011071
0.00598713
0.00211502
-0.000853995
-0.00304897
-0.00454252
-0.0054005
-0.00573871
-0.00564185
-0.00525332
-0.00460598
-0.00388358
-0.00301194
-0.00230961
-0.00145918
-0.00113493
-0.000420464
-0.000893965
0.0317596
0.0233391
0.0164217
0.0109704
0.00671077
0.00339471
0.000879381
-0.00093184
-0.00211306
-0.00277606
-0.00299975
-0.00292407
-0.00258142
-0.00215501
-0.00157142
-0.00114779
-0.000568828
-0.000505784
-4.83344e-05
-0.000766715
0.0357393
0.0274598
0.0204156
0.0146923
0.0101461
0.00657346
0.00382082
0.00177358
0.000351612
-0.000553672
-0.00101674
-0.00117493
-0.00106031
-0.000855626
-0.000488139
-0.000273682
0.000101109
-3.21458e-05
0.000231712
-0.000670641
0.0384162
0.0302171
0.0230789
0.0171699
0.0124318
0.00868906
0.0057796
0.00357614
0.0019944
0.000928154
0.000305903
-7.74579e-06
-4.49991e-05
1.21919e-05
0.000235268
0.000310715
0.000548197
0.000285398
0.00041681
-0.000602648
0.0398177
0.0316401
0.0244373
0.0184232
0.0135821
0.00975094
0.00676152
0.00447927
0.00281688
0.00166995
0.000967384
0.000576589
0.000462257
0.000447484
0.000595463
0.000605976
0.000767344
0.000451759
0.000498018
-0.000549293
0.0107327
-0.0332205
-0.0723415
-0.106572
-0.136112
-0.161245
-0.182756
-0.201185
-0.216909
-0.237286
0.0366377
-0.00542728
-0.0428706
-0.0759226
-0.104574
-0.129493
-0.150237
-0.169426
-0.183992
-0.204709
0.059721
0.0198808
-0.0155511
-0.0471523
-0.0745388
-0.0990681
-0.119173
-0.138922
-0.153666
-0.173421
0.0802165
0.0423725
0.0086336
-0.0218012
-0.0482028
-0.0723955
-0.0922664
-0.111982
-0.127153
-0.145476
0.098372
0.0622122
0.0298489
0.000392964
-0.0252492
-0.0489657
-0.0686209
-0.0877051
-0.102887
-0.11976
0.114458
0.0797748
0.0486104
0.0201071
-0.00481176
-0.0278204
-0.0470945
-0.0653336
-0.080316
-0.09617
0.128742
0.0953933
0.065316
0.037763
0.0135642
-0.00865151
-0.0274997
-0.045027
-0.0597961
-0.0749161
0.141445
0.109305
0.0802146
0.0535654
0.0300388
0.00855143
-0.00990745
-0.0268797
-0.0413677
-0.0558067
0.152733
0.121683
0.0934808
0.0676564
0.0447376
0.0238867
0.00580978
-0.010665
-0.0247965
-0.0385936
0.162741
0.132664
0.10526
0.0801765
0.0578145
0.0375342
0.0198497
0.00383951
-0.00993601
-0.0231686
0.171575
0.142365
0.115678
0.091258
0.0694112
0.0496463
0.0323405
0.0167429
0.00328009
-0.00945945
0.179327
0.150883
0.124839
0.10101
0.0796345
0.0603273
0.0433641
0.0281238
0.0149324
0.00262647
0.186072
0.158304
0.132829
0.109521
0.0885677
0.0696608
0.0529993
0.0380683
0.0251119
0.0131789
0.191871
0.164697
0.139717
0.116864
0.0962823
0.0777219
0.0613218
0.0466546
0.033895
0.0222707
0.196757
0.170103
0.145555
0.123096
0.102838
0.0845737
0.0683947
0.0539452
0.0413424
0.0299636
0.200765
0.17455
0.150384
0.128267
0.108285
0.0902672
0.0742688
0.0599912
0.0475056
0.0363117
0.203917
0.178079
0.154243
0.132413
0.112662
0.0948423
0.0789844
0.0648339
0.0524268
0.0413592
0.206251
0.180729
0.157166
0.135573
0.116004
0.0983363
0.0825789
0.0685109
0.0561423
0.0451421
0.20778
0.182517
0.159179
0.137776
0.118351
0.100795
0.0851023
0.0710765
0.0587086
0.0477155
0.208448
0.183376
0.160201
0.138939
0.11962
0.102144
0.0864924
0.0724893
0.0601088
0.0490936
0.647067
0.647249
0.638228
0.621144
0.596868
0.564201
0.519279
0.456484
0.375065
0.319344
0.584094
0.577462
0.558255
0.53272
0.501076
0.460145
0.405074
0.330199
0.235118
0.169701
0.517987
0.503543
0.476274
0.443709
0.404949
0.35569
0.290777
0.204775
0.0971887
0.0243972
0.444041
0.424001
0.391882
0.354266
0.309351
0.252446
0.178628
0.0832137
-0.0353514
-0.111965
0.367636
0.343121
0.307463
0.265814
0.21566
0.15214
0.0705542
-0.0322123
-0.158447
-0.235113
0.292825
0.264226
0.225572
0.180469
0.125876
0.0568988
-0.0311072
-0.140705
-0.265487
-0.342841
0.221162
0.188965
0.147932
0.100099
0.0419985
-0.0310866
-0.12351
-0.235954
-0.357292
-0.433221
0.153579
0.118418
0.0757537
0.0261133
-0.0343586
-0.110031
-0.204281
-0.316541
-0.432571
-0.504669
0.0906281
0.0533538
0.0101846
-0.0405667
-0.102398
-0.178818
-0.272586
-0.381733
-0.489653
-0.556427
0.0313371
-0.00535049
-0.0483509
-0.0993938
-0.161283
-0.236857
-0.327968
-0.430932
-0.527935
-0.588803
1.06969
1.0858
1.1047
1.12646
1.15103
1.17812
1.20687
1.23491
1.2593
1.28716
1.06309
1.07807
1.09611
1.11697
1.14041
1.16609
1.19313
1.21907
1.24091
1.26682
1.04973
1.06249
1.07885
1.09793
1.11914
1.14205
1.16568
1.18739
1.20436
1.22617
1.02932
1.0389
1.05282
1.06931
1.08725
1.1061
1.12471
1.14023
1.15007
1.16587
1.00156
1.00712
1.01797
1.03111
1.04484
1.05843
1.07056
1.07808
1.07866
1.08679
0.96612
0.966929
0.974144
0.983319
0.992034
0.999361
1.00374
1.00166
0.99109
0.990182
0.922906
0.918467
0.921734
0.926437
0.929389
0.929523
0.925053
0.91203
0.88869
0.877744
0.87066
0.860778
0.860434
0.860663
0.857449
0.849764
0.835642
0.810693
0.773322
0.751617
0.81017
0.795199
0.791785
0.78708
0.777048
0.761061
0.736831
0.699416
0.647375
0.614272
0.73532
0.721996
0.717606
0.707478
0.690049
0.665412
0.630716
0.580513
0.513603
0.468922
0.999187
0.997553
0.996419
0.995691
0.995151
0.99478
0.994665
0.994896
0.995544
0.996682
0.998404
1.00077
1.00388
1.00783
1.01274
1.01872
1.02592
1.03445
1.04449
1.05613
0.999126
0.997426
0.996196
0.995332
0.994648
0.994136
0.993877
0.993959
0.994447
0.995408
0.996921
0.999062
1.00192
1.00558
1.01016
1.01576
1.0225
1.0305
1.0399
1.05074
0.999048
0.997174
0.995705
0.994571
0.993614
0.992825
0.992279
0.992055
0.992219
0.992824
0.993928
0.995614
0.99796
1.00104
1.00495
1.00977
1.0156
1.02251
1.03061
1.0398
0.998918
0.996759
0.994925
0.993393
0.992033
0.99083
0.989847
0.989152
0.988805
0.988864
0.989368
0.990377
0.991948
0.994138
0.997014
1.00063
1.00504
1.01027
1.01636
1.02298
0.998729
0.996172
0.99385
0.991787
0.989888
0.988131
0.986559
0.985227
0.984179
0.983463
0.983151
0.98326
0.983797
0.984784
0.986253
0.988211
0.990676
0.99355
0.996845
0.999869
0.998475
0.995397
0.992462
0.989738
0.987162
0.984708
0.982398
0.980268
0.978315
0.976661
0.975286
0.974188
0.973379
0.972832
0.972515
0.97235
0.972307
0.972123
0.971798
0.970105
0.998149
0.994417
0.990745
0.987233
0.983846
0.98055
0.977343
0.974182
0.971262
0.968497
0.965839
0.96327
0.960769
0.958266
0.955697
0.952866
0.949689
0.945666
0.940924
0.933451
0.997747
0.993224
0.988683
0.98425
0.979922
0.975609
0.971288
0.967158
0.963085
0.95898
0.954814
0.95054
0.946095
0.941327
0.936125
0.930124
0.923234
0.914485
0.904258
0.889123
0.997297
0.991883
0.986389
0.980836
0.97535
0.969973
0.964681
0.959316
0.953826
0.948166
0.942281
0.936058
0.92939
0.922019
0.913806
0.904152
0.893079
0.878905
0.862677
0.838292
0.996688
0.990051
0.983403
0.976861
0.970319
0.963725
0.957035
0.950183
0.943098
0.935685
0.927841
0.919374
0.910122
0.899661
0.887807
0.873504
0.856922
0.834955
0.810313
0.772449
0.99625
0.988756
0.981239
0.973653
0.965945
0.958077
0.950005
0.94165
0.932912
0.923651
0.913721
0.902872
0.890884
0.877244
0.861669
0.842989
0.820998
0.792444
0.757291
0.704762
0.995827
0.987494
0.979089
0.970527
0.961786
0.952834
0.943609
0.934011
0.923922
0.913181
0.901627
0.888984
0.875021
0.859208
0.841253
0.820051
0.795341
0.764839
0.728834
0.684506
0.995404
0.986243
0.976953
0.967437
0.957695
0.947699
0.937371
0.926596
0.915247
0.903155
0.890154
0.875967
0.860367
0.842863
0.823183
0.800443
0.774451
0.743824
0.70879
0.667641
0.994981
0.985002
0.974836
0.964366
0.953622
0.942587
0.931175
0.919257
0.906701
0.893336
0.878996
0.863417
0.846385
0.827464
0.806426
0.782575
0.755802
0.725082
0.690643
0.650833
0.99456
0.983776
0.97275
0.961337
0.949605
0.937556
0.925098
0.912095
0.898409
0.883872
0.868325
0.851521
0.833268
0.813187
0.791098
0.766429
0.739146
0.708369
0.67449
0.635976
0.994144
0.982576
0.970718
0.958388
0.945697
0.932673
0.919224
0.905205
0.890477
0.874877
0.858258
0.840395
0.82112
0.800105
0.777214
0.751963
0.724386
0.693723
0.660487
0.623271
0.99374
0.981415
0.968759
0.95555
0.941941
0.927991
0.913611
0.898651
0.88297
0.866416
0.848854
0.830082
0.809956
0.788192
0.764694
0.739051
0.711347
0.680934
0.648348
0.612315
0.993349
0.980301
0.966892
0.952851
0.938373
0.923552
0.908306
0.892481
0.875938
0.858533
0.840146
0.820597
0.799766
0.777407
0.753456
0.727567
0.699849
0.669755
0.637789
0.602831
0.992977
0.979245
0.965131
0.950312
0.935022
0.91939
0.903347
0.886735
0.869417
0.85126
0.832155
0.811948
0.790534
0.767707
0.743422
0.717394
0.689736
0.659995
0.62862
0.594652
0.992626
0.978255
0.963489
0.94795
0.931909
0.915533
0.898762
0.881441
0.863433
0.844614
0.824892
0.804128
0.782237
0.759045
0.734519
0.708428
0.68088
0.651506
0.620692
0.587638
0.9923
0.977337
0.961975
0.94578
0.929054
0.912
0.894573
0.876619
0.858001
0.838607
0.818354
0.797124
0.774844
0.751369
0.726675
0.700576
0.673169
0.644162
0.613876
0.581658
0.992001
0.976498
0.960597
0.94381
0.926469
0.908808
0.890796
0.872281
0.853131
0.83324
0.812536
0.790917
0.768322
0.74463
0.719823
0.693754
0.666506
0.637854
0.608056
0.576596
0.991731
0.975741
0.959359
0.94205
0.924164
0.905966
0.887439
0.868436
0.848825
0.828509
0.807424
0.785485
0.762636
0.738781
0.713902
0.687888
0.660804
0.632486
0.603132
0.572349
0.991492
0.975069
0.958266
0.940504
0.922145
0.903481
0.884508
0.865083
0.845079
0.824406
0.803003
0.780802
0.757752
0.733775
0.708854
0.682908
0.655985
0.627973
0.599016
0.568829
0.991286
0.974482
0.957321
0.939178
0.92042
0.901358
0.882004
0.862223
0.84189
0.820919
0.799257
0.776844
0.753636
0.72957
0.704629
0.678756
0.651983
0.624243
0.595632
0.565959
0.991113
0.973984
0.956529
0.938079
0.918992
0.899598
0.879927
0.859853
0.83925
0.818039
0.796167
0.773587
0.750258
0.726129
0.701181
0.675379
0.648741
0.621235
0.592917
0.563675
0.990969
0.973577
0.955898
0.937213
0.917864
0.8982
0.878274
0.857967
0.837153
0.815752
0.793719
0.771011
0.74759
0.723418
0.698472
0.672734
0.646209
0.618896
0.590818
0.561923
0.990863
0.973289
0.955457
0.936592
0.91703
0.897155
0.877037
0.856559
0.835589
0.814049
0.791896
0.769096
0.745611
0.72141
0.69647
0.670784
0.64435
0.617188
0.589295
0.560665
0.990874
0.973242
0.955329
0.936286
0.916517
0.896468
0.876217
0.855625
0.834552
0.81292
0.790689
0.767827
0.744301
0.720083
0.695149
0.6695
0.64313
0.616074
0.588318
0.559879
0.990563
0.973186
0.955499
0.936317
0.916336
0.896148
0.875818
0.855167
0.834041
0.812361
0.790089
0.767197
0.74365
0.719423
0.694493
0.668863
0.642527
0.615526
0.587848
0.559542
0.642271
0.577177
0.514044
0.445905
0.374766
0.305126
0.238396
0.174753
0.11464
0.0598773
0.63465
0.567302
0.502565
0.439197
0.373661
0.308978
0.247199
0.18842
0.133356
0.0830821
0.62156
0.557376
0.493562
0.434516
0.374672
0.314641
0.25698
0.202322
0.151081
0.103615
0.607953
0.548455
0.486861
0.430812
0.375607
0.319842
0.26578
0.214536
0.166431
0.121683
0.59554
0.540334
0.4817
0.428169
0.376698
0.324783
0.273939
0.225576
0.180168
0.13775
0.584546
0.533
0.477619
0.426464
0.377965
0.32937
0.281417
0.23555
0.192433
0.152035
0.574912
0.526497
0.47433
0.425484
0.379406
0.333598
0.288216
0.244545
0.20339
0.16475
0.566558
0.520845
0.471669
0.425027
0.380985
0.33749
0.294358
0.252633
0.21318
0.176073
0.559384
0.516005
0.469519
0.424929
0.382637
0.341064
0.299873
0.259871
0.221911
0.186149
0.553268
0.511905
0.467787
0.425063
0.384297
0.344328
0.304796
0.266312
0.229667
0.195089
0.548091
0.508461
0.4664
0.425336
0.385903
0.347282
0.309159
0.272003
0.236518
0.202983
0.543741
0.505591
0.465291
0.425678
0.387403
0.349919
0.312988
0.276983
0.242521
0.209905
0.540116
0.503213
0.464401
0.426033
0.388754
0.352229
0.316301
0.281285
0.24772
0.215917
0.537127
0.501256
0.463679
0.426357
0.389922
0.3542
0.319113
0.284936
0.252141
0.221049
0.534699
0.499655
0.463077
0.426615
0.390878
0.355821
0.321432
0.287963
0.25582
0.225314
0.532765
0.498357
0.462558
0.426776
0.3916
0.35708
0.323263
0.290387
0.258817
0.228857
0.531271
0.497316
0.462093
0.426822
0.392074
0.357973
0.324613
0.29222
0.261126
0.231609
0.530171
0.496488
0.461645
0.426722
0.392279
0.358492
0.325486
0.293478
0.262768
0.233613
0.529452
0.495853
0.46117
0.42641
0.392141
0.358569
0.325828
0.294123
0.26373
0.234887
0.529164
0.495537
0.460811
0.425997
0.391721
0.358219
0.325619
0.294102
0.263917
0.235294
)
;

boundaryField
{
    bottom
    {
        type            symmetryPlane;
    }
    right
    {
        type            fixedValue;
        value           uniform 0;
    }
    top
    {
        type            symmetryPlane;
    }
    left
    {
        type            fixedValue;
        value           uniform 1;
    }
    cylinder
    {
        type            zeroGradient;
    }
    defaultFaces
    {
        type            empty;
    }
}


// ************************************************************************* //
