/*--------------------------------*- C++ -*----------------------------------*\
| =========                 |                                                 |
| \\      /  F ield         | OpenFOAM: The Open Source CFD Toolbox           |
|  \\    /   O peration     | Version:  4.1                                   |
|   \\  /    A nd           | Web:      www.OpenFOAM.org                      |
|    \\/     M anipulation  |                                                 |
\*---------------------------------------------------------------------------*/
FoamFile
{
    version     2.0;
    format      ascii;
    class       volScalarField;
    location    "7.7";
    object      p;
}
// * * * * * * * * * * * * * * * * * * * * * * * * * * * * * * * * * * * * * //

dimensions      [0 2 -2 0 0 0 0];

internalField   nonuniform List<scalar> 
2000
(
-0.438946
-0.427439
-0.416381
-0.40623
-0.397334
-0.388918
-0.379561
-0.369485
-0.355648
-0.344115
-0.462072
-0.446643
-0.432904
-0.420087
-0.407607
-0.394409
-0.379721
-0.363506
-0.345135
-0.327911
-0.490639
-0.470446
-0.453488
-0.436948
-0.419061
-0.3993
-0.377899
-0.355635
-0.332649
-0.310541
-0.524769
-0.498914
-0.477966
-0.455813
-0.430161
-0.402126
-0.373381
-0.345202
-0.317847
-0.293344
-0.563893
-0.531408
-0.505182
-0.474623
-0.438781
-0.401331
-0.365079
-0.331247
-0.300234
-0.272752
-0.605998
-0.5664
-0.532419
-0.490264
-0.442462
-0.39524
-0.351762
-0.31282
-0.278292
-0.248036
-0.647484
-0.601154
-0.555651
-0.499153
-0.438775
-0.38223
-0.332194
-0.288654
-0.250909
-0.217814
-0.683387
-0.631186
-0.570522
-0.498086
-0.425619
-0.360793
-0.305102
-0.257628
-0.216917
-0.181194
-0.708512
-0.650758
-0.572927
-0.484536
-0.401281
-0.329542
-0.269289
-0.218669
-0.175526
-0.137762
-0.718346
-0.654493
-0.559173
-0.456529
-0.36443
-0.28733
-0.223688
-0.170836
-0.126048
-0.0872385
-0.335732
-0.342347
-0.345588
-0.348514
-0.351513
-0.354256
-0.35646
-0.357916
-0.358588
-0.358728
-0.339542
-0.345581
-0.348611
-0.351492
-0.354509
-0.357298
-0.359555
-0.361002
-0.361515
-0.361685
-0.346508
-0.3514
-0.354005
-0.356689
-0.359601
-0.362341
-0.364564
-0.365927
-0.366079
-0.365792
-0.355456
-0.358816
-0.360689
-0.362873
-0.365402
-0.36784
-0.369796
-0.370957
-0.370667
-0.367963
-0.365228
-0.366871
-0.367634
-0.368903
-0.370653
-0.37247
-0.37389
-0.374508
-0.37352
-0.369311
-0.375049
-0.374948
-0.374194
-0.374101
-0.374657
-0.375543
-0.376216
-0.376144
-0.375054
-0.367399
-0.384756
-0.38284
-0.380379
-0.378478
-0.377475
-0.37718
-0.376954
-0.375895
-0.375676
-0.363781
-0.394863
-0.391082
-0.386652
-0.382732
-0.379987
-0.378354
-0.377197
-0.374832
-0.375307
-0.36149
-0.406416
-0.400552
-0.394024
-0.388055
-0.383538
-0.380377
-0.377729
-0.374053
-0.372754
-0.360528
-0.420703
-0.412334
-0.403624
-0.395636
-0.389197
-0.383958
-0.378599
-0.372782
-0.366191
-0.356767
-0.3585
-0.356914
-0.354117
-0.349909
-0.344058
-0.336336
-0.326522
-0.31446
-0.300239
-0.28364
-0.264576
-0.243024
-0.219027
-0.192686
-0.164144
-0.133687
-0.101946
-0.0694152
-0.0348092
0.00116828
-0.362596
-0.361247
-0.358671
-0.354745
-0.34919
-0.341765
-0.332271
-0.320604
-0.306618
-0.290224
-0.271332
-0.249912
-0.226002
-0.199711
-0.171199
-0.140666
-0.108523
-0.0755259
-0.0407162
0.00138231
-0.369011
-0.367913
-0.3657
-0.362278
-0.357225
-0.350262
-0.341191
-0.330219
-0.316761
-0.300777
-0.282193
-0.260981
-0.237176
-0.210888
-0.182285
-0.151468
-0.118768
-0.0844663
-0.0481413
-0.00861633
-0.376175
-0.374171
-0.372502
-0.369736
-0.365297
-0.358936
-0.350958
-0.340389
-0.327417
-0.31187
-0.29362
-0.272615
-0.248864
-0.222451
-0.193514
-0.162224
-0.12874
-0.0931139
-0.0555722
-0.0149996
-0.378437
-0.379258
-0.377512
-0.375062
-0.371438
-0.366182
-0.35851
-0.348555
-0.336123
-0.321
-0.303044
-0.282183
-0.258408
-0.23178
-0.202412
-0.170443
-0.136086
-0.099255
-0.0606646
-0.0184523
-0.379352
-0.382214
-0.380307
-0.377815
-0.374658
-0.36981
-0.362792
-0.353356
-0.341315
-0.326491
-0.308722
-0.287921
-0.264061
-0.237201
-0.207442
-0.174924
-0.139894
-0.102255
-0.0628475
-0.0200879
-0.376904
-0.38216
-0.38054
-0.377497
-0.374413
-0.369972
-0.363256
-0.354026
-0.342144
-0.327427
-0.309692
-0.288865
-0.264901
-0.23789
-0.207911
-0.175173
-0.139885
-0.102165
-0.062614
-0.0206215
-0.373921
-0.379359
-0.376752
-0.373311
-0.370191
-0.365705
-0.358959
-0.349741
-0.337857
-0.32312
-0.305354
-0.284534
-0.260594
-0.233693
-0.203851
-0.171431
-0.13648
-0.0995168
-0.0606408
-0.0204484
-0.370722
-0.373067
-0.36915
-0.365211
-0.361432
-0.356423
-0.349491
-0.340273
-0.328422
-0.313769
-0.296155
-0.275615
-0.25205
-0.225708
-0.196523
-0.165039
-0.131092
-0.0956
-0.0580781
-0.020083
-0.364305
-0.363739
-0.359031
-0.353669
-0.348153
-0.342051
-0.334649
-0.325287
-0.313484
-0.299084
-0.281917
-0.262043
-0.239316
-0.214046
-0.186088
-0.156131
-0.123851
-0.0904627
-0.0550635
-0.0196676
-0.341101
-0.346567
-0.343776
-0.337524
-0.330801
-0.323993
-0.316197
-0.306542
-0.294525
-0.280067
-0.263081
-0.243687
-0.221776
-0.197669
-0.171232
-0.143162
-0.11311
-0.0823422
-0.0498313
-0.0178685
-0.316548
-0.326992
-0.325089
-0.317218
-0.308831
-0.301154
-0.293083
-0.28341
-0.271513
-0.257361
-0.240955
-0.222473
-0.201821
-0.179317
-0.154809
-0.12898
-0.101454
-0.0735003
-0.0440711
-0.0156283
-0.290162
-0.303718
-0.302654
-0.294341
-0.285407
-0.277582
-0.269727
-0.260462
-0.249088
-0.235607
-0.220088
-0.202757
-0.183536
-0.162735
-0.140189
-0.116565
-0.0914756
-0.0661711
-0.0396355
-0.0142332
-0.2636
-0.278403
-0.278571
-0.271041
-0.262495
-0.254969
-0.247519
-0.238799
-0.228094
-0.215416
-0.200871
-0.184719
-0.166901
-0.147726
-0.127027
-0.105447
-0.0826
-0.0596894
-0.0357011
-0.0128505
-0.237361
-0.252582
-0.254246
-0.248139
-0.240485
-0.233501
-0.226546
-0.218434
-0.208476
-0.196678
-0.183152
-0.168184
-0.15173
-0.134107
-0.115143
-0.0954616
-0.0746727
-0.053923
-0.0322117
-0.0116359
-0.21202
-0.227388
-0.230484
-0.225973
-0.219445
-0.213174
-0.206809
-0.199366
-0.190212
-0.179341
-0.16686
-0.153065
-0.137929
-0.121774
-0.104429
-0.0864971
-0.0675841
-0.0487843
-0.0291159
-0.0105635
-0.188237
-0.203456
-0.207717
-0.204743
-0.199436
-0.194001
-0.188313
-0.181587
-0.173263
-0.163334
-0.151893
-0.13924
-0.125361
-0.110584
-0.0947402
-0.0784143
-0.0612082
-0.0441728
-0.0263408
-0.00960367
-0.166236
-0.181012
-0.186159
-0.184595
-0.180524
-0.175996
-0.171042
-0.165057
-0.157564
-0.148564
-0.138139
-0.126586
-0.113898
-0.10041
-0.0859535
-0.0711012
-0.0554496
-0.0400149
-0.0238397
-0.00874292
-0.145963
-0.160136
-0.165954
-0.165659
-0.162785
-0.159182
-0.154984
-0.149742
-0.143064
-0.134966
-0.125518
-0.115012
-0.103445
-0.0911571
-0.0779805
-0.0644784
-0.0502418
-0.03626
-0.0215818
-0.00797017
-0.127388
-0.140898
-0.147222
-0.148045
-0.146292
-0.143593
-0.140144
-0.135631
-0.129737
-0.122499
-0.113978
-0.104459
-0.0939389
-0.0827616
-0.0707597
-0.05849
-0.0455379
-0.0328723
-0.0195448
-0.00727644
-0.110536
-0.123356
-0.130048
-0.131841
-0.131113
-0.129271
-0.126542
-0.122724
-0.117573
-0.111144
-0.10349
-0.0948895
-0.0853371
-0.0751794
-0.0642484
-0.0530972
-0.0413053
-0.0298267
-0.0177137
-0.00665541
-0.095425
-0.107541
-0.114484
-0.117111
-0.117306
-0.116255
-0.114202
-0.111036
-0.106574
-0.100894
-0.0940393
-0.0862824
-0.0776135
-0.068382
-0.0584186
-0.0482741
-0.0375225
-0.0271068
-0.0160783
-0.00610275
-0.0820416
-0.0934653
-0.10057
-0.103906
-0.104919
-0.104586
-0.103153
-0.100583
-0.0967509
-0.091751
-0.0856208
-0.0786264
-0.070753
-0.062352
-0.0532523
-0.0440038
-0.0341751
-0.0247014
-0.0146322
-0.00561544
-0.0703653
-0.0811345
-0.0883342
-0.0922677
-0.0939951
-0.0943003
-0.0934215
-0.091385
-0.0881148
-0.083721
-0.0782353
-0.0719176
-0.0647481
-0.0570795
-0.0487389
-0.0402759
-0.0312542
-0.0226037
-0.013371
-0.00519147
-0.0603796
-0.0705542
-0.0778028
-0.0822314
-0.0845697
-0.0854284
-0.0850329
-0.0834616
-0.0806802
-0.0768133
-0.0718876
-0.0661568
-0.0595962
-0.0525597
-0.0448725
-0.0370844
-0.0287546
-0.0208091
-0.0122922
-0.00482952
-0.0520699
-0.061726
-0.0689932
-0.0738235
-0.0766703
-0.0779948
-0.0780077
-0.0768292
-0.0744601
-0.0710374
-0.0665834
-0.0613466
-0.0552976
-0.048791
-0.0416504
-0.0344259
-0.0266731
-0.0193153
-0.0113942
-0.00452874
-0.0454239
-0.0546527
-0.0619223
-0.0670678
-0.0703215
-0.0720213
-0.0723638
-0.0715027
-0.0694667
-0.0664027
-0.0623295
-0.057491
-0.0518539
-0.0457733
-0.0390716
-0.032299
-0.0250084
-0.0181208
-0.0106762
-0.00428858
-0.0404289
-0.049337
-0.056607
-0.0619885
-0.0655478
-0.0675296
-0.06812
-0.0674974
-0.0657124
-0.062919
-0.0591332
-0.054595
-0.0492683
-0.0435083
-0.0371367
-0.0307036
-0.0237601
-0.0172254
-0.0101383
-0.00410866
-0.0370403
-0.045752
-0.0530382
-0.0585879
-0.0623567
-0.0645287
-0.0652851
-0.0648219
-0.0632047
-0.0605925
-0.0569994
-0.052662
-0.0475433
-0.041997
-0.0358466
-0.029639
-0.0229288
-0.0166274
-0.00978266
-0.00398602
-0.035237
-0.0438755
-0.0511984
-0.0568527
-0.0607393
-0.0630137
-0.0638575
-0.063476
-0.0619454
-0.0594243
-0.0559303
-0.0516923
-0.0466811
-0.0412383
-0.0352042
-0.029102
-0.022519
-0.0163195
-0.00961619
-0.00390865
-0.0555953
-0.105744
-0.149711
-0.187564
-0.219531
-0.246184
-0.26854
-0.287924
-0.304361
-0.328713
-0.0289976
-0.077445
-0.120059
-0.15731
-0.189131
-0.216776
-0.239398
-0.26131
-0.277009
-0.30113
-0.00507092
-0.051291
-0.0918976
-0.127975
-0.158773
-0.186752
-0.208999
-0.231909
-0.247386
-0.269916
0.0163429
-0.0277518
-0.0665432
-0.101586
-0.131414
-0.159279
-0.181209
-0.203899
-0.220243
-0.241915
0.0354646
-0.00678748
-0.0440933
-0.0782162
-0.107299
-0.134726
-0.156609
-0.178785
-0.195984
-0.216434
0.0525193
0.011918
-0.0241007
-0.0572629
-0.0856878
-0.112439
-0.134275
-0.155741
-0.172986
-0.192123
0.0677624
0.0286878
-0.00615392
-0.0382974
-0.0660601
-0.0919914
-0.113553
-0.134173
-0.151061
-0.169287
0.0814155
0.0437571
0.0100078
-0.0211155
-0.0482002
-0.073284
-0.0944165
-0.114298
-0.130835
-0.14834
0.0936469
0.0572867
0.0245484
-0.00560421
-0.0320199
-0.0563226
-0.0770068
-0.0962937
-0.112466
-0.129188
0.104583
0.0693972
0.0375882
0.00833044
-0.0174468
-0.0410553
-0.0612983
-0.0800289
-0.0957771
-0.111677
0.114321
0.080186
0.0492255
0.0207809
-0.00439555
-0.0273721
-0.0471729
-0.0653491
-0.0806734
-0.0958068
0.122934
0.0897338
0.0595423
0.0318333
0.00721719
-0.0151755
-0.0345522
-0.0522084
-0.0671606
-0.0816095
0.130477
0.0981062
0.0686058
0.0415583
0.0174551
-0.00440694
-0.023402
-0.0405966
-0.05523
-0.0690702
0.136993
0.105354
0.0764687
0.0500095
0.0263645
0.00497291
-0.0136907
-0.0304838
-0.0448426
-0.0581529
0.142516
0.111519
0.0831712
0.0572268
0.0339827
0.0129998
-0.00538057
-0.0218313
-0.0359605
-0.048828
0.147079
0.116638
0.0887504
0.0632448
0.0403434
0.0197076
0.00156304
-0.0146075
-0.0285563
-0.0410727
0.150687
0.120734
0.0932314
0.0680911
0.0454748
0.025123
0.00716592
-0.00878917
-0.0226097
-0.0348676
0.153357
0.123802
0.0966279
0.0717912
0.0494063
0.0292756
0.0114567
-0.00434884
-0.0180954
-0.0301903
0.155076
0.125846
0.0989492
0.0743631
0.0521662
0.0322022
0.0144796
-0.0012347
-0.0149554
-0.0269826
0.155779
0.126785
0.10008
0.0756769
0.0536214
0.033779
0.016127
0.00047166
-0.0132383
-0.0252511
0.691016
0.693428
0.685513
0.667954
0.641759
0.605974
0.556392
0.486007
0.392442
0.324218
0.619198
0.614501
0.594561
0.566792
0.532015
0.486914
0.425881
0.341582
0.23194
0.15127
0.543668
0.529913
0.500118
0.46391
0.420989
0.366548
0.294398
0.197223
0.0729503
-0.0175558
0.457701
0.437275
0.401664
0.35967
0.30991
0.246974
0.164836
0.0567238
-0.0804293
-0.176521
0.36763
0.341966
0.302356
0.256023
0.200623
0.130434
0.039718
-0.0766662
-0.223952
-0.319004
0.279013
0.248565
0.205704
0.155826
0.0958135
0.0197764
-0.0780485
-0.201304
-0.34837
-0.442704
0.194211
0.159516
0.114206
0.0616779
-0.00176049
-0.0819241
-0.184295
-0.310952
-0.45333
-0.545018
0.114439
0.0763441
0.0296228
-0.0244498
-0.0898959
-0.172391
-0.27627
-0.402397
-0.537694
-0.623855
0.0404296
0.00020003
-0.0464705
-0.101052
-0.167523
-0.250114
-0.35263
-0.474523
-0.599595
-0.678384
-0.028498
-0.0676101
-0.113429
-0.167623
-0.233414
-0.314175
-0.412748
-0.526758
-0.638255
-0.709248
1.14763
1.16748
1.19021
1.21589
1.24448
1.27565
1.3085
1.34046
1.36808
1.39833
1.14133
1.15994
1.18171
1.2064
1.23373
1.26335
1.29431
1.32394
1.34873
1.37681
1.12844
1.14459
1.16449
1.1872
1.21208
1.23864
1.26581
1.29077
1.31013
1.33365
1.10841
1.121
1.13817
1.158
1.17927
1.20133
1.22296
1.24104
1.25243
1.26922
1.08059
1.0886
1.10232
1.11847
1.13508
1.15133
1.16577
1.17493
1.17591
1.18406
1.04425
1.04676
1.05637
1.06814
1.07922
1.08852
1.09436
1.0928
1.08116
1.07904
0.998981
0.995345
1.00044
1.00728
1.01198
1.01327
1.00922
0.995398
0.969187
0.955514
0.943039
0.93276
0.933715
0.935692
0.933594
0.926138
0.911281
0.884015
0.841715
0.81532
0.87688
0.860317
0.85789
0.854474
0.844722
0.827902
0.801682
0.760305
0.701073
0.660902
0.792492
0.777805
0.774911
0.765562
0.747359
0.72069
0.682652
0.626701
0.550156
0.495756
1.00108
1.00316
1.00589
1.00915
1.0126
1.01618
1.01997
1.02409
1.02862
1.03364
1.03924
1.04545
1.05235
1.06006
1.0687
1.07839
1.08927
1.10147
1.11515
1.13045
1.00103
1.0031
1.00578
1.00892
1.01225
1.01571
1.01938
1.02338
1.02778
1.03264
1.03805
1.04405
1.05072
1.05817
1.06649
1.07582
1.08626
1.09794
1.11099
1.12548
1.00101
1.00299
1.00548
1.0084
1.0115
1.01473
1.01817
1.02191
1.02603
1.03059
1.03563
1.0412
1.04739
1.05429
1.06198
1.07055
1.0801
1.09071
1.10244
1.11526
1.00094
1.00275
1.00495
1.00754
1.0103
1.01319
1.01627
1.01961
1.0233
1.02738
1.03184
1.03676
1.04221
1.04826
1.05495
1.06234
1.07048
1.07939
1.08905
1.09923
1.00082
1.00238
1.00419
1.00631
1.00861
1.01103
1.01361
1.01642
1.0195
1.02289
1.02655
1.03057
1.035
1.03986
1.04515
1.05087
1.05703
1.06352
1.07025
1.07668
1.00063
1.00184
1.00315
1.00468
1.00638
1.00818
1.01012
1.01222
1.01456
1.01699
1.01961
1.02248
1.02557
1.02886
1.0323
1.03582
1.03934
1.04261
1.04547
1.04687
1.00037
1.00108
1.00177
1.00259
1.00355
1.00462
1.00577
1.00704
1.00828
1.00957
1.01095
1.01238
1.01379
1.01508
1.01618
1.01686
1.017
1.01608
1.01403
1.0091
1
1.00007
1.00002
0.999999
1.00009
1.00027
1.00046
1.00057
1.00064
1.00063
1.00052
1.0002
0.999575
0.998453
0.996718
0.993936
0.990002
0.983898
0.975777
0.962538
0.999543
0.998762
0.997866
0.996933
0.996038
0.995143
0.99417
0.993042
0.991736
0.990177
0.988289
0.985896
0.982884
0.9789
0.973852
0.966972
0.95843
0.946259
0.931605
0.907953
0.999115
0.997206
0.995288
0.993404
0.991466
0.989395
0.987134
0.984601
0.981731
0.978388
0.974472
0.969698
0.963938
0.956574
0.947569
0.935411
0.92067
0.899262
0.874661
0.834896
0.998562
0.995728
0.992922
0.990037
0.986961
0.983615
0.97995
0.975865
0.971266
0.96596
0.959808
0.952439
0.943677
0.932757
0.91955
0.902326
0.881281
0.851803
0.814538
0.755247
0.998111
0.994333
0.990588
0.986684
0.98248
0.977905
0.972914
0.967394
0.96123
0.95419
0.946124
0.93661
0.925478
0.911903
0.895765
0.875359
0.850793
0.818626
0.77993
0.73038
0.997659
0.99295
0.988268
0.983328
0.977979
0.972173
0.965877
0.958963
0.951303
0.942643
0.932828
0.921426
0.908275
0.892583
0.874253
0.851834
0.825532
0.79302
0.755463
0.709658
0.997139
0.991599
0.986052
0.980052
0.973511
0.966444
0.958837
0.950547
0.941432
0.931223
0.919769
0.906644
0.891708
0.874227
0.854162
0.83028
0.802938
0.770179
0.733303
0.688979
0.996615
0.990307
0.983972
0.976913
0.969143
0.96079
0.951878
0.942247
0.931738
0.920072
0.907107
0.892436
0.875949
0.856972
0.835543
0.810556
0.7825
0.749537
0.713217
0.670327
0.996095
0.989065
0.982032
0.973947
0.964937
0.95529
0.945092
0.934169
0.922342
0.909324
0.894986
0.878944
0.861127
0.840914
0.818407
0.792597
0.764062
0.731109
0.695415
0.654008
0.995557
0.987873
0.980261
0.971207
0.96096
0.950018
0.93856
0.926404
0.913343
0.899081
0.883503
0.866254
0.847297
0.826065
0.802705
0.776304
0.747483
0.714725
0.679672
0.639628
0.995005
0.986751
0.978702
0.968746
0.957269
0.945036
0.932348
0.919023
0.904817
0.88942
0.872728
0.854421
0.834488
0.81242
0.788385
0.761576
0.73261
0.700149
0.665709
0.626897
0.994442
0.985713
0.977384
0.966603
0.953906
0.940388
0.926509
0.912086
0.896826
0.880401
0.862714
0.843482
0.822716
0.799965
0.775401
0.748321
0.719303
0.687192
0.653332
0.615651
0.993873
0.984774
0.976329
0.964797
0.950891
0.936101
0.921079
0.905636
0.889417
0.872067
0.853496
0.833462
0.811987
0.788679
0.763702
0.736453
0.707449
0.675714
0.642403
0.605765
0.993305
0.983961
0.97556
0.963333
0.948219
0.932181
0.91608
0.899707
0.882623
0.864449
0.845098
0.824371
0.802297
0.77854
0.753242
0.725898
0.696953
0.665602
0.63281
0.597127
0.992751
0.983321
0.975094
0.962179
0.945851
0.928614
0.911525
0.894319
0.876465
0.857563
0.837533
0.816215
0.793638
0.769519
0.743974
0.716591
0.687734
0.656763
0.624452
0.589634
0.99222
0.982906
0.974908
0.961241
0.943703
0.925369
0.907418
0.889485
0.870954
0.851418
0.830805
0.808991
0.785996
0.761589
0.735857
0.708473
0.679723
0.649113
0.617241
0.583199
0.991723
0.982702
0.974825
0.960301
0.94165
0.922418
0.903763
0.885205
0.866085
0.846014
0.824917
0.802694
0.779357
0.754723
0.728852
0.701493
0.672857
0.642581
0.611104
0.577746
0.991288
0.982436
0.974331
0.958975
0.939583
0.919793
0.900587
0.881476
0.861853
0.841351
0.819871
0.797321
0.773707
0.748897
0.722925
0.695606
0.667084
0.637108
0.605977
0.573209
0.99061
0.980827
0.971884
0.956433
0.937342
0.917526
0.897894
0.878272
0.858237
0.837423
0.81566
0.792858
0.769027
0.744084
0.718042
0.690772
0.662357
0.632641
0.601805
0.569533
0.991413
0.97777
0.966441
0.952333
0.935047
0.915759
0.895762
0.875661
0.855307
0.834275
0.812307
0.789312
0.765312
0.74027
0.714181
0.686959
0.658638
0.629138
0.598545
0.566673
0.993178
0.9737
0.958873
0.947526
0.932975
0.914385
0.894129
0.873699
0.853136
0.831947
0.809814
0.786669
0.762545
0.737435
0.711315
0.684134
0.655889
0.62656
0.59616
0.564597
0.996606
0.979329
0.962442
0.948093
0.931897
0.912926
0.892695
0.872324
0.85172
0.83041
0.80814
0.784887
0.760687
0.73554
0.709406
0.682258
0.65407
0.624865
0.594614
0.563287
0.988758
0.983999
0.978901
0.960553
0.936437
0.913202
0.892115
0.871873
0.851275
0.829811
0.807388
0.784042
0.759788
0.734614
0.708468
0.681332
0.653171
0.62403
0.593867
0.562709
0.684193
0.608847
0.536043
0.456865
0.372852
0.290138
0.211156
0.136134
0.065619
0.00129649
0.674989
0.597091
0.521076
0.446923
0.369326
0.291998
0.218427
0.148805
0.0838867
0.0249518
0.6591
0.584964
0.508889
0.438982
0.368167
0.296315
0.227344
0.16238
0.101928
0.0461288
0.642224
0.573701
0.49955
0.432233
0.366809
0.300186
0.235377
0.174273
0.117456
0.0647861
0.626401
0.563007
0.492008
0.42689
0.36566
0.303863
0.242971
0.185163
0.131458
0.0814863
0.612016
0.552961
0.485701
0.422884
0.364879
0.30723
0.249987
0.19512
0.144057
0.0964374
0.599065
0.543686
0.48027
0.419935
0.364529
0.310313
0.256383
0.204201
0.155418
0.109844
0.587503
0.535274
0.475541
0.417783
0.364598
0.313181
0.262163
0.212439
0.165668
0.121886
0.57726
0.527746
0.471409
0.416207
0.365006
0.315879
0.26736
0.219861
0.174895
0.132698
0.568247
0.521071
0.467798
0.415043
0.365655
0.318427
0.272016
0.2265
0.183165
0.142383
0.560371
0.515203
0.464648
0.414172
0.366447
0.320818
0.276171
0.232392
0.190523
0.15101
0.553541
0.510085
0.461907
0.413504
0.367296
0.323029
0.279851
0.23757
0.19701
0.158636
0.547675
0.50566
0.459529
0.412971
0.368129
0.325028
0.283071
0.242065
0.202658
0.1653
0.542701
0.501877
0.457473
0.412519
0.368885
0.326778
0.285833
0.245899
0.207495
0.171037
0.538558
0.498688
0.455706
0.412107
0.369511
0.328243
0.288128
0.249085
0.211542
0.175873
0.535189
0.496054
0.4542
0.411705
0.369967
0.329389
0.289943
0.251626
0.214809
0.179838
0.532548
0.493934
0.45293
0.411287
0.370226
0.330193
0.291274
0.253535
0.217289
0.182861
0.530599
0.492292
0.451854
0.410807
0.370239
0.330617
0.292107
0.254827
0.219063
0.185109
0.529346
0.49114
0.450961
0.410207
0.36991
0.330555
0.292348
0.255428
0.220067
0.186529
0.528842
0.490645
0.450473
0.409697
0.369393
0.330093
0.292015
0.255292
0.22016
0.186877
)
;

boundaryField
{
    bottom
    {
        type            symmetryPlane;
    }
    right
    {
        type            fixedValue;
        value           uniform 0;
    }
    top
    {
        type            symmetryPlane;
    }
    left
    {
        type            fixedValue;
        value           uniform 1;
    }
    cylinder
    {
        type            zeroGradient;
    }
    defaultFaces
    {
        type            empty;
    }
}


// ************************************************************************* //
