/*--------------------------------*- C++ -*----------------------------------*\
| =========                 |                                                 |
| \\      /  F ield         | OpenFOAM: The Open Source CFD Toolbox           |
|  \\    /   O peration     | Version:  4.1                                   |
|   \\  /    A nd           | Web:      www.OpenFOAM.org                      |
|    \\/     M anipulation  |                                                 |
\*---------------------------------------------------------------------------*/
FoamFile
{
    version     2.0;
    format      ascii;
    class       volScalarField;
    location    "3.9";
    object      p;
}
// * * * * * * * * * * * * * * * * * * * * * * * * * * * * * * * * * * * * * //

dimensions      [0 2 -2 0 0 0 0];

internalField   nonuniform List<scalar> 
2000
(
-0.104447
-0.093849
-0.0858218
-0.0767429
-0.064955
-0.0500909
-0.0326843
-0.0138189
0.00582518
0.0231389
-0.121634
-0.108954
-0.0989574
-0.0869987
-0.071446
-0.0525661
-0.0315583
-0.00988632
0.0112606
0.0297244
-0.139487
-0.124567
-0.112022
-0.096224
-0.0759401
-0.0524118
-0.0275481
-0.00304685
0.0199386
0.0403117
-0.157384
-0.140058
-0.12421
-0.103516
-0.0776543
-0.0491041
-0.020388
0.006765
0.0313957
0.0528856
-0.17438
-0.154489
-0.134424
-0.107795
-0.0757587
-0.0421068
-0.00972607
0.0198489
0.0459696
0.0686446
-0.189212
-0.166614
-0.141332
-0.107892
-0.0694461
-0.0309172
0.00475886
0.0364171
0.0638264
0.0875154
-0.200346
-0.17492
-0.143488
-0.102683
-0.057989
-0.0150691
0.0234165
0.0568014
0.0853116
0.109915
-0.20608
-0.177728
-0.139477
-0.0911902
-0.0407847
0.00583223
0.046548
0.0812636
0.110666
0.136005
-0.204697
-0.173379
-0.128001
-0.0726274
-0.017366
0.0321103
0.0744112
0.110012
0.140029
0.165831
-0.194627
-0.160398
-0.107991
-0.0464295
0.0125885
0.0640045
0.107213
0.143201
0.173424
0.199241
0.00553374
0.00341888
0.00528395
0.00963953
0.0161592
0.0246076
0.0345557
0.045402
0.0564388
0.0668898
0.00238728
0.000565967
0.00243805
0.0066343
0.0129116
0.0211252
0.0308768
0.0416103
0.0526894
0.0633161
-0.00363768
-0.00484282
-0.00294375
0.00100237
0.00688645
0.0146836
0.0240872
0.0346116
0.0457665
0.0567637
-0.0120083
-0.0123209
-0.0103083
-0.00660729
-0.00115945
0.00615771
0.015163
0.0254758
0.0367244
0.0483157
-0.0221415
-0.0213312
-0.0190645
-0.0155305
-0.0104004
-0.00347158
0.00524027
0.0154522
0.0268371
0.0392306
-0.0335422
-0.0314125
-0.0287039
-0.0251048
-0.0201118
-0.0133372
-0.00465874
0.00571151
0.0173571
0.0306912
-0.0458856
-0.0422977
-0.0389483
-0.0350296
-0.0298416
-0.0228346
-0.0137787
-0.00286442
0.0092953
0.0236196
-0.0590712
-0.0539033
-0.0497139
-0.0451761
-0.0393543
-0.0315752
-0.0215854
-0.00967284
0.00337001
0.0186104
-0.0731553
-0.0662974
-0.0610748
-0.0555453
-0.0485107
-0.0392359
-0.0275704
-0.014065
0.000393438
0.0160882
-0.0882564
-0.0795946
-0.0731176
-0.0661226
-0.0571429
-0.0455061
-0.0312994
-0.0153556
0.00147994
0.0170559
0.0759584
0.084522
0.09214
0.0983828
0.103059
0.10609
0.107442
0.107115
0.105153
0.101644
0.0966994
0.0904481
0.0830238
0.0745598
0.0651796
0.0550047
0.0441025
0.0326623
0.0203445
0.00842824
0.0719025
0.0807182
0.0887994
0.0954113
0.10039
0.103702
0.105321
0.10524
0.103502
0.100195
0.0954318
0.0893443
0.0820679
0.073738
0.0644803
0.0544196
0.0436238
0.0322914
0.0200778
0.00828271
0.0644418
0.0736786
0.082608
0.0899003
0.0954338
0.099265
0.101377
0.101755
0.100432
0.0974981
0.0930726
0.0872896
0.0802885
0.0722088
0.0631799
0.0533318
0.0427374
0.0315976
0.0196015
0.00794234
0.0548137
0.0644711
0.0744792
0.0826541
0.0888975
0.093394
0.0961465
0.0971205
0.0963404
0.0938963
0.0899145
0.084534
0.0778987
0.0701528
0.0614307
0.0518686
0.0415464
0.0306645
0.0189656
0.00748642
0.0445159
0.0544474
0.0655404
0.0746443
0.0816307
0.0868322
0.0902759
0.0918998
0.0917164
0.0898145
0.0863267
0.0813978
0.0751755
0.0678084
0.0594365
0.050201
0.0401921
0.0296039
0.0182511
0.0069774
0.0350105
0.0450529
0.0569895
0.0668711
0.0745006
0.0803387
0.0844276
0.0866692
0.0870607
0.0856867
0.0826852
0.078206
0.0723999
0.0654183
0.0574049
0.0485043
0.0388189
0.0285297
0.0175371
0.00647172
0.0274782
0.0375875
0.0499531
0.0602793
0.0683274
0.0746261
0.0792119
0.0819547
0.082834
0.0819198
0.0793457
0.075266
0.0698352
0.0632059
0.0555241
0.0469342
0.0375518
0.0275383
0.0168868
0.00601337
0.0226019
0.0328456
0.0451709
0.0554959
0.0636402
0.0701217
0.0749595
0.0780197
0.0792729
0.0787517
0.0765521
0.0728196
0.0677105
0.0613794
0.0539761
0.045644
0.0365134
0.0267212
0.0163528
0.00562895
0.0201135
0.0303673
0.0422193
0.0522125
0.0602613
0.066729
0.0716327
0.0748701
0.0763879
0.0761987
0.0743549
0.0709636
0.0661644
0.060107
0.0529444
0.0448193
0.0358789
0.0262349
0.0160512
0.00537584
0.0212204
0.0311435
0.0423094
0.0520376
0.0598506
0.0659882
0.0705936
0.0736182
0.0749948
0.074763
0.0729837
0.0697261
0.0650966
0.0592202
0.0522374
0.0442779
0.0354985
0.0259823
0.0159493
0.00528016
0.036907
0.0404918
0.0498412
0.0586493
0.0651814
0.0699056
0.0732735
0.0753103
0.0759216
0.0750755
0.0728116
0.069203
0.0643464
0.0583473
0.051333
0.0434096
0.0347388
0.0253598
0.0155553
0.00507222
0.0530868
0.0530361
0.0600849
0.0671761
0.071879
0.0747542
0.0764979
0.077201
0.0767253
0.0750052
0.072074
0.0679979
0.0628541
0.0567218
0.049705
0.0418825
0.0334058
0.0242763
0.0148191
0.00469107
0.0683939
0.065978
0.0704712
0.075431
0.0783126
0.0795479
0.0798506
0.0793433
0.0778798
0.0753725
0.0718358
0.0673211
0.0618895
0.0556004
0.0485411
0.0407693
0.0324303
0.0234946
0.0143204
0.00446775
0.0831655
0.0787515
0.0807732
0.0835745
0.0847237
0.0844806
0.0834749
0.0818393
0.0794396
0.0761779
0.0720512
0.0670959
0.0613592
0.0548845
0.047745
0.0399789
0.0317255
0.0229266
0.0139589
0.00430344
0.0969591
0.0909253
0.0907188
0.0914872
0.0910118
0.0894162
0.0872184
0.0845401
0.0812625
0.0772856
0.0725924
0.0672043
0.0611563
0.0544774
0.0472288
0.0394323
0.03122
0.0225091
0.0136876
0.00417921
0.109544
0.102284
0.100131
0.0990486
0.0970838
0.094261
0.0909861
0.0873573
0.0832687
0.0786229
0.0733926
0.0675858
0.0612263
0.0543313
0.0469518
0.039095
0.0308865
0.0222226
0.013498
0.00409309
0.120921
0.112723
0.108902
0.106179
0.102877
0.0989523
0.0947101
0.0902214
0.0853902
0.0801239
0.0743884
0.0681806
0.0615143
0.054397
0.0468708
0.0389308
0.030696
0.0220454
0.0133764
0.0040371
0.131122
0.1222
0.116976
0.112826
0.108343
0.103438
0.0983319
0.0930698
0.0875636
0.0817266
0.07552
0.068932
0.0619683
0.0546278
0.0469451
0.0389049
0.0306203
0.0219561
0.0133092
0.00400455
0.140206
0.130725
0.124333
0.118961
0.113445
0.107675
0.101802
0.0958488
0.0897338
0.0833761
0.0767343
0.06979
0.0625417
0.0549815
0.0471377
0.0389862
0.0306345
0.0219358
0.0132849
0.00399025
0.148252
0.138339
0.130979
0.124565
0.118155
0.111628
0.10508
0.0985131
0.091853
0.0850244
0.0779846
0.0707097
0.063193
0.0554207
0.0474158
0.039147
0.0307165
0.0219682
0.0132935
0.00398981
0.155342
0.145088
0.136926
0.129633
0.122456
0.115271
0.108131
0.101025
0.0938807
0.0866303
0.07923
0.0716523
0.0638859
0.0559125
0.0477505
0.0393626
0.0308466
0.0220387
0.0133262
0.00399949
0.161544
0.15102
0.142195
0.134163
0.126333
0.118583
0.11093
0.103352
0.0957829
0.0881584
0.0804356
0.0725838
0.0645886
0.0564278
0.0481163
0.0396116
0.0310076
0.0221347
0.0133754
0.0040161
0.166919
0.15618
0.146809
0.138161
0.129781
0.121548
0.113456
0.10547
0.0975315
0.0895794
0.0815716
0.0734755
0.065274
0.056942
0.0484913
0.0398755
0.0311848
0.0222451
0.0134343
0.00403696
0.171518
0.160609
0.150791
0.141634
0.132794
0.124157
0.115691
0.107359
0.0991035
0.0908688
0.0826133
0.0743031
0.0659191
0.0574339
0.0488568
0.0401383
0.0313655
0.0223607
0.0134973
0.00405979
0.175386
0.164343
0.154164
0.144591
0.135374
0.126401
0.117625
0.109003
0.10048
0.0920066
0.0835403
0.0750464
0.0665048
0.0578859
0.0491972
0.0403868
0.031539
0.0224736
0.0135597
0.00408268
0.178562
0.167413
0.156946
0.147041
0.13752
0.128276
0.119248
0.110388
0.101648
0.0929768
0.0843359
0.0756891
0.0670152
0.0582833
0.0494995
0.0406098
0.0316963
0.0225771
0.0136174
0.00410409
0.181074
0.169844
0.159155
0.148992
0.139235
0.129779
0.120553
0.111507
0.102594
0.093767
0.0849871
0.076218
0.0674378
0.0586146
0.0497533
0.0407984
0.0318304
0.0226662
0.0136672
0.00412273
0.182945
0.171654
0.160801
0.150449
0.140519
0.130907
0.121536
0.112352
0.103311
0.0943675
0.0854838
0.0766232
0.0677629
0.0588707
0.0499504
0.0409458
0.0319357
0.0227366
0.0137068
0.0041378
0.184203
0.172864
0.161897
0.151418
0.141375
0.13166
0.122193
0.112918
0.103792
0.0947715
0.0858189
0.0768973
0.0679836
0.0590451
0.0500851
0.0410469
0.032008
0.0227856
0.0137337
0.00415076
0.184871
0.173493
0.162459
0.151909
0.141805
0.132038
0.122523
0.113202
0.104033
0.0949747
0.0859876
0.0770355
0.0680949
0.0591335
0.0501529
0.0410989
0.0320433
0.0228134
0.013742
0.00416988
0.220565
0.187932
0.158582
0.132694
0.110302
0.0913193
0.0755405
0.0627963
0.0529016
0.0424706
0.238633
0.207379
0.179226
0.154182
0.13233
0.113465
0.0977552
0.0841211
0.0736415
0.0610489
0.254463
0.224682
0.197743
0.173508
0.152135
0.13317
0.117127
0.102316
0.0908773
0.0779198
0.268272
0.239726
0.213743
0.190114
0.169082
0.150024
0.133727
0.118433
0.106548
0.0938626
0.280299
0.252777
0.227581
0.204481
0.183783
0.164832
0.148526
0.133261
0.121005
0.108438
0.290802
0.264172
0.239676
0.217091
0.196748
0.178035
0.161765
0.146576
0.133887
0.121353
0.300001
0.274162
0.250295
0.228201
0.208188
0.189726
0.173457
0.158321
0.145314
0.132825
0.308067
0.282932
0.259623
0.23798
0.218258
0.200033
0.183778
0.168718
0.155524
0.143046
0.315136
0.290625
0.267812
0.246578
0.227124
0.209125
0.192918
0.177938
0.164622
0.152116
0.321321
0.297364
0.274995
0.254131
0.234926
0.217139
0.200997
0.186082
0.172678
0.160133
0.326713
0.303249
0.281279
0.260749
0.241774
0.224178
0.208107
0.193245
0.179778
0.167194
0.331389
0.308365
0.286751
0.266521
0.247758
0.230331
0.214332
0.199515
0.186001
0.173374
0.335416
0.312779
0.291484
0.271521
0.252951
0.235674
0.219745
0.204964
0.191408
0.178734
0.338846
0.316553
0.295538
0.275811
0.257415
0.24027
0.224404
0.209651
0.196055
0.183328
0.34172
0.319731
0.298962
0.279443
0.261201
0.244171
0.228359
0.213625
0.199988
0.1872
0.344065
0.322339
0.301792
0.282456
0.264351
0.247418
0.231651
0.216926
0.203244
0.190389
0.345902
0.324408
0.304058
0.284883
0.266896
0.250044
0.234312
0.219586
0.205855
0.192925
0.347262
0.325969
0.305789
0.28675
0.268862
0.252075
0.236366
0.221629
0.207843
0.194829
0.348163
0.327042
0.30701
0.28809
0.270287
0.253551
0.237855
0.223097
0.209248
0.196138
0.348569
0.32759
0.307678
0.288857
0.271125
0.254432
0.238747
0.223973
0.210071
0.196872
0.666106
0.6638
0.65509
0.641662
0.624045
0.601139
0.570551
0.529948
0.481601
0.454595
0.621865
0.614801
0.599915
0.58152
0.559314
0.531043
0.493965
0.445995
0.389774
0.357653
0.574997
0.563142
0.543665
0.52111
0.494375
0.460692
0.417327
0.362622
0.299327
0.263068
0.523761
0.508582
0.486246
0.460486
0.429712
0.391043
0.341962
0.28151
0.212309
0.173317
0.471503
0.453606
0.429021
0.40052
0.366197
0.323167
0.269107
0.203896
0.130996
0.0906483
0.420197
0.399837
0.3733
0.342388
0.304988
0.258294
0.200181
0.130613
0.058368
0.0165631
0.370604
0.348097
0.319966
0.287087
0.247164
0.197581
0.136471
0.0651761
-0.00565376
-0.0477666
0.323348
0.299035
0.269715
0.235417
0.19361
0.142052
0.0794823
0.00815445
-0.0601778
-0.10136
0.278878
0.253166
0.223279
0.187916
0.144916
0.0924558
0.0297606
-0.0399762
-0.104284
-0.143646
0.23655
0.211068
0.180984
0.145079
0.101629
0.0492187
-0.0122989
-0.0787427
-0.137614
-0.174581
0.968069
0.975734
0.985331
0.996927
1.01049
1.02581
1.04232
1.05841
1.07289
1.09262
0.96287
0.969816
0.978877
0.989893
1.00272
1.01715
1.03255
1.0473
1.0602
1.07881
0.952431
0.957978
0.965988
0.975861
0.987247
0.99988
1.01309
1.02517
1.03508
1.0513
0.936698
0.940242
0.946733
0.954931
0.964201
0.974212
0.984197
0.992359
0.997926
1.01062
0.915604
0.916655
0.921228
0.92727
0.933808
0.940435
0.946262
0.949376
0.949341
0.957555
0.889084
0.887243
0.889599
0.893085
0.896365
0.898949
0.899804
0.89689
0.890163
0.89311
0.857225
0.852237
0.852194
0.852798
0.852356
0.85033
0.845528
0.83578
0.82147
0.818581
0.819628
0.811465
0.809144
0.806761
0.802305
0.795268
0.78431
0.767135
0.744587
0.735539
0.776919
0.765777
0.761411
0.755759
0.746935
0.734601
0.717179
0.692233
0.661065
0.645804
0.725607
0.715442
0.709991
0.700784
0.687356
0.669571
0.645497
0.612627
0.572728
0.551432
0.997367
0.992202
0.987338
0.982666
0.978111
0.973704
0.969506
0.965571
0.961948
0.958685
0.955842
0.953512
0.951762
0.950657
0.950268
0.950675
0.951964
0.954233
0.957595
0.96213
0.997314
0.992061
0.987093
0.982301
0.977623
0.973091
0.968764
0.964692
0.96092
0.957495
0.954484
0.951968
0.950007
0.948663
0.948005
0.948108
0.949051
0.950912
0.953795
0.957735
0.997225
0.991777
0.986584
0.981556
0.976638
0.97186
0.967273
0.962924
0.958852
0.955103
0.951761
0.948876
0.946495
0.944674
0.943474
0.942961
0.943205
0.944248
0.946165
0.948891
0.997087
0.99134
0.985809
0.980431
0.975158
0.970015
0.965048
0.960296
0.955792
0.951545
0.947692
0.94425
0.941239
0.938701
0.936685
0.935232
0.934391
0.934177
0.934624
0.935488
0.996897
0.990745
0.984765
0.978921
0.973175
0.96754
0.962047
0.956726
0.951609
0.946803
0.942305
0.938114
0.934258
0.930765
0.927657
0.924941
0.922625
0.920658
0.919077
0.917381
0.996653
0.989989
0.983451
0.977029
0.970693
0.964452
0.958335
0.952372
0.946483
0.940926
0.935605
0.930483
0.925576
0.920893
0.916423
0.912125
0.907963
0.903781
0.899611
0.894553
0.996353
0.989069
0.98187
0.974771
0.967746
0.96079
0.953894
0.946958
0.940408
0.933996
0.927658
0.921407
0.915243
0.909134
0.903028
0.896821
0.890433
0.883553
0.876262
0.867028
0.995994
0.987971
0.979982
0.972068
0.964207
0.956334
0.948479
0.940943
0.933454
0.925942
0.918419
0.910871
0.903255
0.895487
0.887467
0.878999
0.869954
0.859781
0.848695
0.834297
0.99562
0.986839
0.978046
0.969186
0.960334
0.951613
0.943041
0.934449
0.925792
0.917057
0.908218
0.899218
0.889973
0.880348
0.870199
0.859226
0.847282
0.833462
0.818256
0.797649
0.995053
0.985147
0.975243
0.965464
0.955748
0.946024
0.936265
0.926444
0.916514
0.90642
0.896092
0.885428
0.874292
0.862474
0.84975
0.835644
0.819949
0.801226
0.780629
0.751739
0.994741
0.984214
0.97367
0.963105
0.952488
0.94179
0.930987
0.920035
0.908869
0.897405
0.885544
0.873149
0.860048
0.845982
0.830667
0.813565
0.794271
0.771269
0.744063
0.706781
0.994456
0.983357
0.97221
0.960997
0.949707
0.938309
0.926761
0.915005
0.902966
0.890554
0.877658
0.864133
0.8498
0.8344
0.817655
0.799065
0.778261
0.754193
0.726732
0.694364
0.994183
0.982528
0.970792
0.958965
0.947041
0.93498
0.922729
0.910223
0.897387
0.884127
0.870331
0.855853
0.840524
0.824106
0.806354
0.78687
0.765369
0.741239
0.714317
0.683849
0.993914
0.981709
0.969389
0.956955
0.944402
0.931687
0.918749
0.905521
0.891926
0.877869
0.863241
0.847904
0.831699
0.81442
0.795854
0.775701
0.753731
0.729541
0.702926
0.673338
0.993648
0.980904
0.968015
0.954989
0.941827
0.928486
0.914899
0.900996
0.886701
0.871922
0.856554
0.840469
0.823525
0.805545
0.786351
0.765709
0.743435
0.719237
0.692976
0.664242
0.99339
0.980124
0.966687
0.953094
0.939354
0.925423
0.911231
0.896708
0.881778
0.866355
0.85034
0.833619
0.816065
0.79753
0.777866
0.756889
0.734459
0.710363
0.684529
0.656609
0.993143
0.979378
0.96542
0.95129
0.937006
0.922524
0.907774
0.892684
0.877182
0.861189
0.844614
0.827354
0.8093
0.790329
0.770318
0.749125
0.726646
0.702724
0.677321
0.650135
0.992908
0.978672
0.964223
0.94959
0.934799
0.919808
0.904547
0.888944
0.872932
0.856438
0.839379
0.821667
0.803206
0.783893
0.763631
0.742309
0.71985
0.696137
0.671149
0.644633
0.992688
0.97801
0.963105
0.948006
0.932748
0.917291
0.901565
0.885502
0.869038
0.852107
0.834635
0.816544
0.797753
0.778177
0.757738
0.736349
0.713954
0.690468
0.66588
0.639983
0.992483
0.977396
0.962072
0.946546
0.930861
0.914982
0.898839
0.882366
0.865505
0.848195
0.830371
0.811966
0.79291
0.773133
0.752572
0.731163
0.708862
0.685609
0.661401
0.636073
0.992295
0.976834
0.961128
0.945215
0.929146
0.912887
0.896373
0.879539
0.862332
0.844696
0.826575
0.80791
0.788642
0.768714
0.748075
0.726676
0.704487
0.681467
0.657614
0.632804
0.992125
0.976326
0.960277
0.944018
0.927605
0.91101
0.894169
0.87702
0.859513
0.8416
0.82323
0.804351
0.784915
0.764875
0.74419
0.722824
0.700755
0.677957
0.654432
0.630087
0.991973
0.975873
0.95952
0.942955
0.926241
0.909352
0.892225
0.874804
0.857041
0.838894
0.820316
0.801265
0.781697
0.761576
0.740868
0.719547
0.697598
0.675007
0.651779
0.627848
0.99184
0.975476
0.958858
0.942029
0.925054
0.907911
0.89054
0.872887
0.854908
0.836565
0.817817
0.798626
0.778956
0.758777
0.738061
0.716792
0.694959
0.672557
0.649592
0.626022
0.991726
0.975136
0.958293
0.941238
0.924042
0.906684
0.889108
0.871261
0.853103
0.834599
0.815713
0.796411
0.776663
0.756444
0.735732
0.714515
0.692788
0.670553
0.647816
0.624556
0.991631
0.974853
0.957823
0.940583
0.923203
0.905669
0.887924
0.869919
0.851616
0.832983
0.813988
0.7946
0.774794
0.754547
0.733844
0.712677
0.691043
0.668952
0.646406
0.623404
0.991555
0.974627
0.957448
0.940061
0.922536
0.904862
0.886984
0.868855
0.85044
0.831706
0.812627
0.793174
0.773325
0.753061
0.73237
0.711247
0.689691
0.667716
0.645325
0.622531
0.991499
0.97446
0.957171
0.939673
0.922039
0.90426
0.886284
0.868063
0.849564
0.830758
0.811618
0.792119
0.77224
0.751965
0.731285
0.710197
0.688702
0.666818
0.644546
0.621907
0.991462
0.974353
0.956993
0.939419
0.92171
0.903861
0.885819
0.867538
0.848984
0.83013
0.81095
0.791421
0.771524
0.751244
0.730572
0.709509
0.688056
0.666235
0.644047
0.621517
0.991432
0.974298
0.956911
0.939297
0.921548
0.903662
0.885588
0.867277
0.848696
0.829818
0.810618
0.791075
0.771168
0.750886
0.730218
0.709168
0.687738
0.665949
0.643808
0.621353
0.663745
0.618758
0.574184
0.526624
0.47777
0.429785
0.383263
0.338482
0.295802
0.256468
0.658511
0.611986
0.567328
0.523122
0.477923
0.433344
0.390184
0.348643
0.309263
0.272754
0.649892
0.605283
0.562021
0.520983
0.479269
0.437654
0.39726
0.358423
0.321506
0.286891
0.6413
0.599549
0.558147
0.519497
0.480664
0.441638
0.403586
0.366977
0.332065
0.29918
0.633714
0.594593
0.555233
0.518553
0.482092
0.445327
0.409283
0.374545
0.341345
0.309923
0.627165
0.590327
0.553021
0.518059
0.483534
0.448709
0.414402
0.381251
0.349499
0.31933
0.621567
0.586714
0.551335
0.517892
0.484957
0.451776
0.418973
0.387181
0.356665
0.327577
0.616842
0.583707
0.550054
0.51795
0.486334
0.454539
0.423036
0.392415
0.36296
0.334812
0.612891
0.581235
0.549085
0.518147
0.487638
0.457009
0.426626
0.39702
0.368482
0.341153
0.609611
0.579222
0.548355
0.518421
0.488845
0.459198
0.429777
0.401051
0.373309
0.346697
0.606903
0.577592
0.547807
0.518726
0.489936
0.461117
0.43252
0.404558
0.377509
0.351525
0.604682
0.576276
0.547393
0.519026
0.490896
0.462775
0.434882
0.40758
0.381136
0.355703
0.60287
0.575215
0.547072
0.519293
0.491714
0.464179
0.436885
0.410153
0.384234
0.359289
0.601405
0.574358
0.54681
0.519508
0.492381
0.465335
0.438548
0.412304
0.386837
0.362296
0.600231
0.57366
0.546578
0.519654
0.492891
0.466249
0.439887
0.414059
0.38898
0.364814
0.599306
0.573086
0.546353
0.519715
0.493239
0.466923
0.440915
0.41544
0.390705
0.366868
0.598594
0.57261
0.546119
0.519684
0.493422
0.467361
0.441639
0.41646
0.392015
0.368452
0.598064
0.572206
0.54586
0.519553
0.493439
0.46757
0.442074
0.417134
0.392928
0.369596
0.597696
0.571847
0.545538
0.519279
0.493252
0.46752
0.442198
0.417452
0.393449
0.370322
0.59753
0.571605
0.545213
0.518891
0.492859
0.467188
0.441973
0.417365
0.393516
0.370548
)
;

boundaryField
{
    bottom
    {
        type            symmetryPlane;
    }
    right
    {
        type            fixedValue;
        value           uniform 0;
    }
    top
    {
        type            symmetryPlane;
    }
    left
    {
        type            fixedValue;
        value           uniform 1;
    }
    cylinder
    {
        type            zeroGradient;
    }
    defaultFaces
    {
        type            empty;
    }
}


// ************************************************************************* //
